38
 Energy =    -617.3123955767
 N    6.3019817    9.0098894    7.2068577  0.00   -0.3143355    1.3093508   -0.8884341
 N    8.3991822    9.0189266    6.8872340  0.00   -0.9040475    1.2767017   -1.5326221
 C    7.2463192    9.8544617    6.3637842  0.00    1.6536529   -3.9205620    3.0505424
 H    7.3697607   10.7912012    5.8002267  0.00   -0.4243026   -0.0971496    0.0495756
 C   12.1966078   11.0774781    7.1324007  0.00    0.3044258    0.0882479   -0.1303264
 C   12.2282717    9.5460577    7.3165558  0.00    0.1538574    0.0212986    0.2218300
 C   10.8328016    9.0449252    7.7423307  0.00   -0.0994642   -0.4347444    0.0305245
 C    9.8368426    9.3904809    6.6206766  0.00   -1.0515489    0.7604188   -0.0873960
 C    9.7817667   10.9229453    6.4476972  0.00    0.4481706    0.2547468   -0.3899308
 C   11.1692336   11.4562413    6.0474701  0.00   -0.0050015    0.3619434    0.0143577
 H   13.2288230   11.4455307    6.8193967  0.00   -0.4502834   -0.1071611    0.2314196
 H   11.9052675   11.5665811    8.1185926  0.00    0.1886251   -0.1655091   -0.4174439
 H   12.5275695    9.0506400    6.3357170  0.00   -0.0642016    0.1792435    0.4560703
 H   12.9869751    9.2765012    8.1214852  0.00   -0.2906116    0.0565548   -0.4195992
 H   10.5137321    9.5504999    8.7114330  0.00    0.1169893   -0.2789173   -0.4151295
 H   10.8752348    7.9199323    7.9027957  0.00   -0.1131372    0.4814208    0.0059386
 H    9.4507326   11.3959290    7.4296398  0.00    0.0895035   -0.2103498   -0.4523713
 H    9.0302127   11.1899341    5.6341032  0.00    0.4771660   -0.0578034    0.4018235
 H   11.1260682   12.5892413    5.9315944  0.00    0.0743407   -0.5008464   -0.0429138
 H   11.4766579   10.9882765    5.0560175  0.00   -0.1196196    0.2749159    0.3875763
 H   10.1719395    8.9087268    5.6438905  0.00   -0.1970459    0.1254131    0.4069349
 C    3.3975195   11.8585758    8.6597784  0.00   -0.2078605    0.2030801    0.2710521
 C    2.9881361   10.3724684    8.7342765  0.00   -0.2752701    0.0328741   -0.0899752
 C    3.8057873    9.5517862    7.7145553  0.00   -0.0325743   -0.3435011   -0.0124298
 C    5.2933391    9.7190672    8.0819142  0.00    0.8767616    0.4242219   -0.6598583
 C    5.7185594   11.2007222    8.0145208  0.00   -0.0772080    0.3107451    0.5197322
 C    4.8872618   12.0245377    9.0115439  0.00    0.0391971    0.3068258   -0.0976562
 H    2.7742414   12.4612792    9.3992822  0.00    0.2084904   -0.2193026   -0.4190228
 H    3.2144787   12.2460893    7.6038323  0.00    0.0203462   -0.1091996    0.4865779
 H    3.1874411    9.9779676    9.7852371  0.00   -0.1700158    0.1538956   -0.4555826
 H    1.8770232   10.2731075    8.4995442  0.00    0.4946365   -0.0053536    0.1883636
 H    3.6105833    9.9349520    6.6588584  0.00    0.0925068   -0.2333001    0.4588839
 H    3.5127253    8.4519772    7.7847107  0.00    0.1496396    0.5019096   -0.1476067
 H    5.5674013   11.5938184    6.9555243  0.00    0.0507408   -0.1570908    0.4932492
 H    6.8216233   11.2875400    8.2894024  0.00   -0.5064164   -0.0452940   -0.1915585
 H    5.1862126   13.1227184    8.9507746  0.00   -0.1329748   -0.4810801    0.1358042
 H    5.0728049   11.6389496   10.0678511  0.00   -0.0472036    0.2436408   -0.4398539
 H    5.4300107    9.3541756    9.1527036  0.00    0.0444130   -0.0025753   -0.5194329
38
 Energy =    -617.3485747522
 N    6.2982918    9.0252589    7.1964292  0.00   -0.3672507    0.9560445   -0.7283060
 N    8.3885705    9.0339127    6.8692441  0.00   -0.7940240    1.0313116   -1.2935570
 C    7.2657288    9.8084447    6.3995898  0.00    1.6683193   -2.7141496    2.3123563
 H    7.3647801   10.7900619    5.8008083  0.00   -0.4627403   -0.7387504    0.4161194
 C   12.2001810   11.0785142    7.1308703  0.00    0.1621050    0.0280349   -0.1091897
 C   12.2300774    9.5463080    7.3191587  0.00    0.0167005    0.0506931    0.1325856
 C   10.8316339    9.0398227    7.7426882  0.00   -0.1598766   -0.2197729   -0.0640128
 C    9.8244996    9.3994069    6.6196501  0.00   -0.8617157    0.6312501   -0.0967191
 C    9.7870270   10.9259361    6.4431199  0.00    0.3927326    0.2437791   -0.2759158
 C   11.1691748   11.4604901    6.0476381  0.00    0.0585550    0.2172727    0.0406781
 H   13.2235377   11.4442731    6.8221123  0.00   -0.3332420   -0.0699856    0.1910928
 H   11.9074816   11.5646386    8.1136923  0.00    0.1803286   -0.1378958   -0.3699007
 H   12.5268156    9.0527442    6.3410693  0.00   -0.0449417    0.1542156    0.4091715
 H   12.9835638    9.2771651    8.1165592  0.00   -0.2189681    0.0321809   -0.3312949
 H   10.5151052    9.5472264    8.7065597  0.00    0.1011004   -0.2623501   -0.3531113
 H   10.8739065    7.9255833    7.9028645  0.00   -0.1145229    0.3438627    0.0107666
 H    9.4517831   11.3934605    7.4243297  0.00    0.0902172   -0.1785090   -0.4302296
 H    9.0358133   11.1892564    5.6388193  0.00    0.4036421   -0.0180945    0.3200920
 H   11.1269408   12.5833631    5.9310902  0.00    0.0686600   -0.3718527   -0.0500041
 H   11.4752536   10.9915039    5.0605661  0.00   -0.1000856    0.2608986    0.3364735
 H   10.1696262    8.9101995    5.6486662  0.00   -0.2204309    0.1380621    0.4018973
 C    3.3950798   11.8609605    8.6629601  0.00   -0.1059941    0.0944329    0.1837257
 C    2.9849051   10.3728553    8.7332204  0.00   -0.1069171    0.0479069   -0.0954855
 C    3.8054047    9.5477554    7.7144093  0.00    0.0686742   -0.1635144    0.0180694
 C    5.3036300    9.7240474    8.0741689  0.00    0.7026987    0.3892688   -0.5450422
 C    5.7176532   11.2043704    8.0206211  0.00   -0.1046039    0.2965337    0.3881454
 C    4.8877220   12.0281400    9.0103977  0.00   -0.0426401    0.1909555   -0.0633174
 H    2.7766888   12.4587061    9.3943642  0.00    0.1368676   -0.1497407   -0.3254519
 H    3.2147176   12.2448087    7.6095438  0.00    0.0058125   -0.0839544    0.4367480
 H    3.1854456    9.9797749    9.7798896  0.00   -0.1641757    0.1327224   -0.3992324
 H    1.8828290   10.2730459    8.5017553  0.00    0.3767823   -0.0149023    0.1555510
 H    3.6116689    9.9322149    6.6642446  0.00    0.0724913   -0.2183256    0.3926278
 H    3.5144814    8.4578696    7.7829780  0.00    0.1301193    0.3750795   -0.1318515
 H    5.5679968   11.5919755    6.9613138  0.00    0.0536799   -0.1268692    0.4688475
 H    6.8156793   11.2870091    8.2871538  0.00   -0.4152762   -0.0176913   -0.1530582
 H    5.1846521   13.1170725    8.9523688  0.00   -0.1029745   -0.3610338    0.1228915
 H    5.0722511   11.6418101   10.0626883  0.00   -0.0404707    0.2325925   -0.3855176
 H    5.4305319    9.3541461    9.1466065  0.00    0.0710339   -0.0022729   -0.5353370
38
 Energy =    -617.3950281595
 N    6.2848231    9.0508643    7.1748210  0.00   -0.5929814    0.2709912   -0.4863524
 N    8.3637742    9.0641480    6.8299959  0.00    0.8228128   -0.0600138   -0.2915176
 C    7.3225640    9.7396884    6.4637496  0.00    0.2049521   -0.5509368    0.8712063
 H    7.3483545   10.7526666    5.8219748  0.00   -0.3505332   -1.0461184    0.6129531
 C   12.2029351   11.0783053    7.1275763  0.00    0.0266052   -0.0416798   -0.0863656
 C   12.2280013    9.5485929    7.3219299  0.00   -0.1496024    0.0772204    0.0395684
 C   10.8250504    9.0365143    7.7386920  0.00   -0.2351862   -0.0126963   -0.1696629
 C    9.7989464    9.4183200    6.6161877  0.00   -0.5154099    0.3213171   -0.1379552
 C    9.7992726   10.9339923    6.4359632  0.00    0.2233005    0.1622991   -0.1463520
 C   11.1723852   11.4650723    6.0495252  0.00    0.1103157    0.0590698    0.0825267
 H   13.2144975   11.4426179    6.8278141  0.00   -0.1556137   -0.0246251    0.1246311
 H   11.9134358   11.5604946    8.1020708  0.00    0.1404871   -0.0762666   -0.2490843
 H   12.5256630    9.0574922    6.3540306  0.00   -0.0160500    0.0969174    0.2818640
 H   12.9775214    9.2777841    8.1070257  0.00   -0.1416907    0.0029302   -0.1987940
 H   10.5182262    9.5386502    8.6957810  0.00    0.0515319   -0.1937921   -0.2130706
 H   10.8699968    7.9345890    7.9033144  0.00   -0.1228744    0.1811109   -0.0053800
 H    9.4548562   11.3880245    7.4101734  0.00    0.0778305   -0.0809779   -0.3206521
 H    9.0480804   11.1894146    5.6480956  0.00    0.2715540    0.0685090    0.1665628
 H   11.1291606   12.5732477    5.9292627  0.00    0.0658004   -0.1722273   -0.0513253
 H   11.4722381   11.0000844    5.0709872  0.00   -0.0453803    0.1998051    0.2025731
 H   10.1617032    8.9151290    5.6621872  0.00   -0.2375544    0.1520404    0.3375748
 C    3.3934508   11.8620705    8.6675080  0.00   -0.0048300   -0.0223324    0.0981542
 C    2.9845247   10.3747710    8.7298760  0.00    0.0776029    0.0562331   -0.1085641
 C    3.8096833    9.5456844    7.7156057  0.00    0.1830587    0.0153984    0.0546345
 C    5.3240968    9.7365718    8.0579018  0.00    0.4212864    0.2900893   -0.2942234
 C    5.7135807   11.2141509    8.0312439  0.00   -0.0772523    0.2086246    0.2081952
 C    4.8847016   12.0323810    9.0089157  0.00   -0.1175122    0.0747216   -0.0369042
 H    2.7799503   12.4549709    9.3851386  0.00    0.0327461   -0.0562281   -0.1791808
 H    3.2146364   12.2424541    7.6233920  0.00   -0.0155953   -0.0342328    0.3018970
 H    3.1799933    9.9838653    9.7674396  0.00   -0.1289104    0.0846960   -0.2641516
 H    1.8933312   10.2723602    8.5063943  0.00    0.2183319   -0.0256969    0.0917839
 H    3.6137409    9.9251097    6.6762748  0.00    0.0415114   -0.1617740    0.2389125
 H    3.5185155    8.4681448    7.7788056  0.00    0.1205980    0.2084153   -0.0963162
 H    5.5698743   11.5882623    6.9767382  0.00    0.0425683   -0.0356975    0.3425074
 H    6.8033593   11.2869422    8.2827079  0.00   -0.2493033    0.0460657   -0.0786629
 H    5.1817417   13.1071472    8.9562914  0.00   -0.0674664   -0.1676893    0.0990583
 H    5.0710103   11.6494790   10.0506686  0.00   -0.0283929    0.1818642   -0.2366627
 H    5.4334527    9.3540745    9.1281492  0.00    0.1197736    0.0023937   -0.5032471
38
 Energy =    -617.4174890909
 N    6.2521726    9.0691945    7.1461919  0.00   -0.2681864   -0.0703272   -0.3336368
 N    8.4023955    9.0659479    6.8086539  0.00    0.3759736   -0.5814333    0.2633417
 C    7.3418150    9.6993257    6.5194330  0.00   -0.1365648    0.1389643    0.1586217
 H    7.3277696   10.6936295    5.8564693  0.00   -0.2750364   -0.8908087    0.6243129
 C   12.2048949   11.0761893    7.1225835  0.00   -0.0926357   -0.0869027   -0.0338970
 C   12.2201077    9.5529001    7.3244966  0.00   -0.2566860    0.0545654   -0.0243125
 C   10.8119558    9.0351048    7.7294153  0.00   -0.1377147    0.1902315   -0.2568639
 C    9.7681807    9.4379704    6.6085339  0.00    0.3052141    0.1595978   -0.0527568
 C    9.8127483   10.9436289    6.4271731  0.00    0.0796280    0.0820636   -0.0255052
 C   11.1785037   11.4689970    6.0540493  0.00    0.1159264   -0.0617314    0.0774431
 H   13.2049375   11.4410504    6.8351732  0.00    0.0397050    0.0150773    0.0464215
 H   11.9216170   11.5558860    8.0873660  0.00    0.0856845   -0.0037286   -0.0995453
 H   12.5246326    9.0632590    6.3706278  0.00    0.0063477    0.0290262    0.1215374
 H   12.9691904    9.2780560    8.0951858  0.00   -0.0782099   -0.0177893   -0.0600571
 H   10.5213842    9.5273019    8.6830455  0.00   -0.0312539   -0.0998624   -0.0649368
 H   10.8630473    7.9454851    7.9030910  0.00   -0.1421707    0.0138085   -0.0397690
 H    9.4593478   11.3829737    7.3914123  0.00    0.0488684    0.0278458   -0.1627990
 H    9.0640745   11.1929414    5.6582173  0.00    0.1041950    0.1686879   -0.0405958
 H   11.1329075   12.5626560    5.9263422  0.00    0.0703660    0.0396445   -0.0433015
 H   11.4694077   11.0117460    5.0831079  0.00    0.0230815    0.1170526    0.0431855
 H   10.1482377    8.9237328    5.6817021  0.00   -0.1669393    0.1126263    0.1370497
 C    3.3928354   11.8612145    8.6733824  0.00    0.0667976   -0.0999259   -0.0008897
 C    2.9882835   10.3779563    8.7237614  0.00    0.2006933    0.0379345   -0.0946228
 C    3.8196811    9.5459615    7.7185767  0.00    0.2277439    0.2022926    0.1089769
 C    5.3491994    9.7535232    8.0400752  0.00   -0.1325050    0.1312397   -0.1179177
 C    5.7089971   11.2264484    8.0437824  0.00   -0.0268936    0.1070966    0.0167682
 C    4.8782615   12.0370263    9.0067468  0.00   -0.1540362   -0.0453010    0.0110093
 H    2.7822254   12.4514153    9.3743667  0.00   -0.0763062    0.0334518   -0.0167662
 H    3.2138350   12.2403021    7.6411761  0.00   -0.0374568    0.0221029    0.1331656
 H    3.1724904    9.9888928    9.7518194  0.00   -0.0758856    0.0264938   -0.1001227
 H    1.9063566   10.2709430    8.5118871  0.00    0.0643169   -0.0329341    0.0136841
 H    3.6162246    9.9156534    6.6905386  0.00    0.0233875   -0.0849023    0.0591414
 H    3.5253861    8.4806391    7.7731679  0.00    0.1224575    0.0358130   -0.0456165
 H    5.5723577   11.5858215    6.9968302  0.00    0.0181675    0.0768664    0.1679730
 H    6.7884859   11.2892831    8.2779204  0.00   -0.0357507    0.1196937    0.0114601
 H    5.1777768   13.0968261    8.9620335  0.00   -0.0318604    0.0444911    0.0653504
 H    5.0693467   11.6600622   10.0365407  0.00   -0.0163405    0.1153109   -0.0530464
 H    5.4400587    9.3541872    9.0993331  0.00    0.1950612   -0.0274408   -0.3921843
38
 Energy =    -617.4302276946
 N    6.2243343    9.0800621    7.1103417  0.00   -0.2812925   -0.2870304   -0.0638404
 N    8.4308269    9.0385132    6.8087084  0.00   -0.1023867   -0.4904642    0.4428477
 C    7.3485615    9.6651689    6.5685909  0.00    0.2168606    0.1684503   -0.1797231
 H    7.3019980   10.6234525    5.9041463  0.00   -0.1639161   -0.5569418    0.5158619
 C   12.2022488   11.0709622    7.1180653  0.00    0.0041472   -0.0272043    0.0053398
 C   12.2032359    9.5575692    7.3255814  0.00   -0.0842371   -0.0055187   -0.0263857
 C   10.7992635    9.0429369    7.7111312  0.00    0.0045163    0.1093259   -0.0714648
 C    9.7716546    9.4591881    6.6025651  0.00    0.2373633   -0.0614664    0.0822139
 C    9.8247076   10.9532094    6.4199619  0.00   -0.0464036    0.0231647   -0.0063992
 C   11.1872060   11.4692572    6.0601745  0.00    0.0541526    0.0453198   -0.0151381
 H   13.2013222   11.4407135    6.8418453  0.00    0.0827267   -0.0126483    0.0100248
 H   11.9305994   11.5532136    8.0739927  0.00    0.0216754    0.0540787    0.0375229
 H   12.5242413    9.0679951    6.3861565  0.00    0.0035124   -0.0202590   -0.0121090
 H   12.9596161    9.2775336    8.0849105  0.00   -0.0963967   -0.0122849    0.0096515
 H   10.5210735    9.5159550    8.6724038  0.00   -0.0907572   -0.0198502   -0.0113439
 H   10.8513044    7.9532524    7.9005125  0.00   -0.1611129    0.0394720   -0.1202567
 H    9.4642723   11.3818793    7.3728035  0.00    0.0125892    0.1205270    0.0067600
 H    9.0785950   11.2041384    5.6613807  0.00    0.0041339    0.2010897   -0.1665669
 H   11.1389466   12.5583675    5.9224847  0.00    0.0863839    0.1029177   -0.0139368
 H   11.4692378   11.0242656    5.0919312  0.00    0.0807711    0.0329143   -0.0833902
 H   10.1327165    8.9340315    5.6984686  0.00   -0.0033142    0.0329741   -0.1366924
 C    3.3950270   11.8564884    8.6771576  0.00   -0.0231096   -0.0125705    0.0145828
 C    2.9994687   10.3813784    8.7154784  0.00    0.0812658    0.0066223   -0.0137628
 C    3.8362544    9.5557786    7.7261660  0.00    0.0678231    0.0904586   -0.0038350
 C    5.3541107    9.7694837    8.0227758  0.00   -0.2237467   -0.0080069   -0.0829686
 C    5.7056919   11.2387446    8.0523559  0.00    0.0012518   -0.0235506   -0.0506518
 C    4.8673254   12.0380323    9.0060164  0.00   -0.0246925    0.0288154    0.0225016
 H    2.7796751   12.4507965    9.3671111  0.00   -0.0910496    0.0230650    0.0398585
 H    3.2114089   12.2402739    7.6579544  0.00   -0.0451482    0.0616053   -0.0249414
 H    3.1644557    9.9930841    9.7379133  0.00   -0.0119332   -0.0181196    0.0328552
 H    1.9178935   10.2684452    8.5156723  0.00    0.0387719   -0.0301207   -0.0498159
 H    3.6191130    9.9060076    6.7015554  0.00    0.0198878   -0.0091126   -0.0499262
 H    3.5362207    8.4902764    7.7677101  0.00    0.1591681    0.0386803    0.0055330
 H    5.5744967   11.5889125    7.0163714  0.00   -0.0094905    0.1884259   -0.0362147
 H    6.7783713   11.2971863    8.2758971  0.00    0.1028379    0.1511607    0.0771590
 H    5.1736070   13.0931214    8.9687037  0.00   -0.0460741    0.1023613    0.0393202
 H    5.0674989   11.6720088   10.0261513  0.00   -0.0112097    0.0377115    0.1141179
 H    5.4545491    9.3524488    9.0630629  0.00    0.2374988   -0.0647890   -0.2364151
38
 Energy =    -617.4381994396
 N    6.1864674    9.0758266    7.0807919  0.00    0.0244523   -0.2574560   -0.1629800
 N    8.4416336    8.9987658    6.8286915  0.00    0.2278707   -0.3188292    0.5232196
 C    7.3727095    9.6317967    6.6039221  0.00   -0.3492056   -0.1314347   -0.0169654
 H    7.2750007   10.5501396    5.9628244  0.00    0.0058966   -0.0802236    0.2217893
 C   12.2039577   11.0672611    7.1148823  0.00   -0.0136006    0.0410808    0.0544699
 C   12.1903323    9.5598756    7.3262732  0.00    0.0272689   -0.0062956   -0.0726845
 C   10.7917924    9.0502101    7.6974720  0.00    0.0662953    0.0939763    0.0569151
 C    9.7788537    9.4713906    6.6038432  0.00   -0.0144021   -0.3037477    0.0092456
 C    9.8311014   10.9615652    6.4124675  0.00   -0.1485727   -0.0062620    0.0337490
 C   11.1951961   11.4755552    6.0624908  0.00    0.0246547   -0.0326311   -0.0797679
 H   13.2011375   11.4387908    6.8478354  0.00    0.1411436   -0.0252303   -0.0227187
 H   11.9381505   11.5541457    8.0662175  0.00   -0.0064514    0.0706588    0.0961368
 H   12.5237570    9.0705391    6.3970241  0.00    0.0005352   -0.0567474   -0.1018330
 H   12.9458180    9.2769717    8.0767934  0.00   -0.0508742   -0.0276883    0.1060071
 H   10.5158781    9.5066143    8.6628562  0.00   -0.1163248    0.0424400    0.0411648
 H   10.8336565    7.9640958    7.8912413  0.00   -0.1459992   -0.0169682   -0.1520055
 H    9.4683691   11.3877282    7.3600524  0.00   -0.0091289    0.1652788    0.0826367
 H    9.0903019   11.2227635    5.6553059  0.00   -0.0385722    0.1769813   -0.2014222
 H   11.1483854   12.5587950    5.9191770  0.00    0.0851508    0.1890151    0.0027712
 H   11.4735600   11.0350531    5.0939883  0.00    0.1001189    0.0056470   -0.1206119
 H   10.1227595    8.9426387    5.7015401  0.00    0.0637284    0.0178726   -0.2084598
 C    3.3927476   11.8550024    8.6825075  0.00   -0.0078177    0.0411185   -0.0579072
 C    3.0082121   10.3838745    8.7095342  0.00    0.0189692   -0.0187621    0.0565925
 C    3.8489953    9.5635417    7.7295598  0.00   -0.0896177    0.1103696   -0.0511421
 C    5.3499575    9.7806711    8.0033615  0.00   -0.1409138   -0.1172304    0.0150845
 C    5.7035576   11.2458655    8.0577884  0.00    0.0756755   -0.0050780   -0.1407117
 C    4.8605024   12.0432905    9.0061522  0.00    0.0131859   -0.0360773    0.0929857
 H    2.7740836   12.4501509    9.3624832  0.00   -0.1206036    0.0347849    0.1068918
 H    3.2073225   12.2434456    7.6687986  0.00   -0.0475369    0.0715180   -0.0873468
 H    3.1581826    9.9953042    9.7292975  0.00    0.0337024   -0.0459057    0.1066330
 H    1.9305661   10.2651063    8.5158747  0.00   -0.0294056   -0.0300693   -0.0961721
 H    3.6226437    9.8985315    6.7076344  0.00    0.0036897    0.0461409   -0.1364475
 H    3.5536585    8.5020782    7.7641162  0.00    0.1433557   -0.0481226    0.0412552
 H    5.5753607   11.6017994    7.0278791  0.00   -0.0146891    0.2266403   -0.1144608
 H    6.7757690   11.3109576    8.2783956  0.00    0.1109858    0.1307965    0.0950920
 H    5.1672385   13.0940029    8.9758253  0.00   -0.0338059    0.1706844    0.0097176
 H    5.0654171   11.6826314   10.0248728  0.00   -0.0148632    0.0111292    0.1535583
 H    5.4780966    9.3473566    9.0244376  0.00    0.2269886   -0.0823714   -0.0819702
38
 Energy =    -617.4445361607
 N    6.1591971    9.0622079    7.0454641  0.00   -0.0303340   -0.2147449    0.0293738
 N    8.4632800    8.9546623    6.8685773  0.00   -0.4118795    0.0668004    0.3250556
 C    7.3733125    9.5888461    6.6393192  0.00    0.2183529   -0.6156569    0.1555027
 H    7.2536530   10.4882943    6.0203284  0.00    0.1091739    0.2599634   -0.0192433
 C   12.2046003   11.0669482    7.1152244  0.00    0.0737467    0.0806165    0.0111140
 C   12.1820142    9.5616698    7.3229578  0.00    0.1241076    0.0008140   -0.0068025
 C   10.7890499    9.0604995    7.6900246  0.00    0.0791473   -0.0534046    0.0555611
 C    9.7795949    9.4653957    6.6041973  0.00   -0.0633121   -0.0861347    0.0151751
 C    9.8289229   10.9684472    6.4078661  0.00   -0.1553603   -0.0922333   -0.0287302
 C   11.2029293   11.4784882    6.0599385  0.00   -0.0722604    0.0618905   -0.0609123
 H   13.2078955   11.4357325    6.8517134  0.00    0.0880893   -0.0510773   -0.0175744
 H   11.9442207   11.5582355    8.0642276  0.00   -0.0273309    0.0687364    0.1152081
 H   12.5232669    9.0698184    6.4010175  0.00   -0.0041569   -0.0667889   -0.1474294
 H   12.9320433    9.2750281    8.0756650  0.00   -0.0286151   -0.0261422    0.1256494
 H   10.5058608    9.5010366    8.6567848  0.00   -0.1201316    0.0947844    0.0771100
 H   10.8118436    7.9721861    7.8758907  0.00   -0.0987222   -0.0152928   -0.1407791
 H    9.4712977   11.4007024    7.3532889  0.00   -0.0235035    0.1553675    0.0975922
 H    9.0985336   11.2465074    5.6407681  0.00   -0.0323809    0.1138569   -0.1418705
 H   11.1604765   12.5686232    5.9166009  0.00    0.0764045    0.0813114    0.0236946
 H   11.4819891   11.0445920    5.0901923  0.00    0.1034367   -0.0186758   -0.1305701
 H   10.1177526    8.9508406    5.6942096  0.00    0.0736513   -0.0210026   -0.2171494
 C    3.3906160   11.8564233    8.6835417  0.00   -0.0618921    0.0907343    0.0260666
 C    3.0157076   10.3848834    8.7079140  0.00   -0.1049090    0.0101956    0.0729327
 C    3.8537349    9.5755534    7.7295141  0.00   -0.1399016   -0.0344865   -0.0689623
 C    5.3420207    9.7839050    7.9879839  0.00    0.0612056   -0.1167773   -0.0894339
 C    5.7060446   11.2525283    8.0551445  0.00    0.0829905   -0.0141657   -0.0846062
 C    4.8556260   12.0453518    9.0115169  0.00    0.0878988    0.0527768    0.0192954
 H    2.7634561   12.4512098    9.3639576  0.00   -0.0669678   -0.0139257    0.0707324
 H    3.2015882   12.2494773    7.6738624  0.00   -0.0362806    0.0677782   -0.1145084
 H    3.1547395    9.9949089    9.7272656  0.00    0.0633173   -0.0513342    0.1222575
 H    1.9395708   10.2608270    8.5111837  0.00   -0.0412943   -0.0230657   -0.0991853
 H    3.6257067    9.8946754    6.7059280  0.00   -0.0206647    0.0873862   -0.1690283
 H    3.5751557    8.5091836    7.7632622  0.00    0.1065554   -0.0393122    0.0500058
 H    5.5754459   11.6236182    7.0321351  0.00   -0.0075932    0.2186656   -0.1365417
 H    6.7781631   11.3284762    8.2849463  0.00    0.0694092    0.0902236    0.0697218
 H    5.1602673   13.1031392    8.9821192  0.00   -0.0500744    0.0709607    0.0008647
 H    5.0628329   11.6922722   10.0307870  0.00   -0.0161584   -0.0179622    0.1640214
 H    5.5087196    9.3389378    8.9888906  0.00    0.1977157   -0.1026106    0.0469801
38
 Energy =    -617.4500983563
 N    6.1321549    9.0366970    7.0192798  0.00    0.0590228   -0.1133772    0.0653488
 N    8.4630982    8.9181597    6.9208677  0.00    0.1606262    0.0267783    0.1703981
 C    7.3846186    9.5319140    6.6708729  0.00   -0.3154515   -0.3100732    0.0758122
 H    7.2412175   10.4443155    6.0701499  0.00    0.2206158    0.2225731   -0.0640510
 C   12.2079379   11.0700753    7.1156033  0.00    0.0743490    0.0998771    0.0149983
 C   12.1796432    9.5638542    7.3196315  0.00    0.1806431   -0.0372774    0.0145825
 C   10.7893321    9.0675746    7.6843649  0.00    0.0111596   -0.0901348    0.1063155
 C    9.7794815    9.4576919    6.6045459  0.00   -0.2353427   -0.0394832    0.0121735
 C    9.8190770   10.9688721    6.4028763  0.00   -0.1012504    0.0205408   -0.0331603
 C   11.2058997   11.4832216    6.0557821  0.00   -0.0845842    0.0464374   -0.0778255
 H   13.2185779   11.4308124    6.8539960  0.00    0.0251817   -0.0535942   -0.0114668
 H   11.9480147   11.5651764    8.0684555  0.00   -0.0115812    0.0276281    0.0452834
 H   12.5228166    9.0657023    6.3966563  0.00   -0.0193097   -0.0246914   -0.0871927
 H   12.9197550    9.2717636    8.0816619  0.00   -0.0168152   -0.0139115    0.0941609
 H   10.4913021    9.5013168    8.6562924  0.00   -0.0684968    0.0687310   -0.0062499
 H   10.7887227    7.9768985    7.8561852  0.00   -0.0367136   -0.0127328   -0.1048476
 H    9.4726655   11.4194697    7.3521185  0.00   -0.0168228    0.0761707   -0.0017565
 H    9.1036835   11.2723387    5.6214974  0.00   -0.0110532    0.0224448   -0.0368480
 H   11.1744532   12.5810655    5.9156320  0.00    0.0363938   -0.0345728    0.0352904
 H   11.4944079   11.0517687    5.0802440  0.00    0.0598160    0.0117185   -0.0343028
 H   10.1161336    8.9569894    5.6781611  0.00   -0.0110592   -0.0156002   -0.0895586
 C    3.3865474   11.8611075    8.6858036  0.00   -0.0707587    0.1116268    0.0220572
 C    3.0179789   10.3868741    8.7097443  0.00   -0.1537992    0.0000167    0.0751401
 C    3.8523173    9.5849095    7.7267295  0.00   -0.0935258   -0.1042593   -0.1015990
 C    5.3386485    9.7811504    7.9705333  0.00    0.1811559   -0.0745642   -0.0454822
 C    5.7120576   11.2576529    8.0482715  0.00    0.0602249    0.0213621   -0.0526751
 C    4.8551585   12.0492718    9.0165023  0.00    0.0857739    0.0415543    0.0174999
 H    2.7508863   12.4517088    9.3691214  0.00   -0.0101288   -0.0418047    0.0302189
 H    3.1948720   12.2581454    7.6723340  0.00   -0.0150162    0.0311441   -0.0355137
 H    3.1550146    9.9919036    9.7318131  0.00    0.0592562   -0.0235857    0.0556584
 H    1.9440552   10.2560009    8.5021241  0.00   -0.0407755   -0.0082678   -0.0684720
 H    3.6268591    9.8960423    6.6954097  0.00   -0.0310798    0.0758154   -0.0874896
 H    3.5981843    8.5122015    7.7649698  0.00    0.0435161   -0.0200653    0.0388888
 H    5.5753430   11.6530681    7.0292870  0.00    0.0214968    0.1502762   -0.0629071
 H    6.7837061   11.3478266    8.2939434  0.00    0.0086914    0.0437191    0.0183376
 H    5.1520075   13.1145015    8.9875316  0.00   -0.0438848   -0.0166111   -0.0054938
 H    5.0598667   11.6994737   10.0441393  0.00   -0.0236092   -0.0035526    0.0547865
 H    5.5446333    9.3266163    8.9610766  0.00    0.1238148   -0.0625401    0.0601435
38
 Energy =    -617.4525237568
 N    6.1204883    9.0128362    7.0107012  0.00    0.0433144   -0.0931898    0.1009402
 N    8.4699811    8.8962039    6.9620381  0.00   -0.2249780    0.1625734   -0.0769291
 C    7.3739056    9.4925174    6.6854641  0.00    0.1465590   -0.2104190    0.0639051
 H    7.2468863   10.4277020    6.0976184  0.00    0.2228374    0.0540301   -0.0208598
 C   12.2132489   11.0770939    7.1169651  0.00   -0.0374404   -0.0153849   -0.0142978
 C   12.1879317    9.5626416    7.3181335  0.00   -0.0070923    0.0099534    0.0118007
 C   10.7899938    9.0679398    7.6867899  0.00    0.0071968    0.0195189   -0.0323569
 C    9.7693899    9.4504124    6.6063747  0.00   -0.0661720    0.0535877   -0.0123316
 C    9.8073355   10.9706047    6.3990731  0.00   -0.0080165    0.0567628   -0.0185789
 C   11.2030306   11.4879089    6.0489623  0.00    0.0063681   -0.0670460    0.0138447
 H   13.2269115   11.4252168    6.8542614  0.00    0.0211944   -0.0103911   -0.0168465
 H   11.9493179   11.5709188    8.0739799  0.00    0.0131644    0.0012059   -0.0160392
 H   12.5215429    9.0618298    6.3887445  0.00   -0.0093930    0.0066814   -0.0173502
 H   12.9122216    9.2690178    8.0910148  0.00    0.0458883   -0.0219898    0.0830154
 H   10.4789677    9.5055693    8.6559034  0.00   -0.0229217    0.0316358   -0.0345866
 H   10.7736004    7.9778577    7.8389523  0.00    0.0006255   -0.0542345   -0.0443439
 H    9.4724174   11.4346451    7.3516381  0.00   -0.0208959    0.0234223   -0.0724924
 H    9.1050568   11.2885511    5.6076769  0.00   -0.0236215   -0.0225721    0.0169471
 H   11.1843186   12.5868009    5.9172080  0.00   -0.0070206   -0.0378084    0.0164587
 H   11.5050596   11.0562488    5.0721961  0.00    0.0124198    0.0375085    0.0301387
 H   10.1144955    8.9593967    5.6633634  0.00   -0.1104593    0.0202429    0.0817073
 C    3.3806243   11.8694854    8.6878179  0.00    0.0286234   -0.0206910   -0.0144229
 C    3.0114270   10.3879765    8.7150825  0.00    0.0015820   -0.0029845   -0.0292720
 C    3.8471866    9.5851574    7.7193125  0.00    0.0393930    0.0204834    0.0078423
 C    5.3443669    9.7748834    7.9590640  0.00    0.0463699    0.0088147    0.0201039
 C    5.7185616   11.2611766    8.0403428  0.00    0.0260992    0.0512365   -0.0207952
 C    4.8594492   12.0532206    9.0205022  0.00   -0.0438252   -0.0552975   -0.0021494
 H    2.7428022   12.4500492    9.3745140  0.00   -0.0106144   -0.0012080    0.0381812
 H    3.1901577   12.2650692    7.6688857  0.00   -0.0081938    0.0113236    0.0361853
 H    3.1587159    9.9886770    9.7380965  0.00    0.0261243    0.0025479   -0.0078684
 H    1.9433488   10.2528191    8.4927796  0.00   -0.0835832   -0.0040923   -0.0284027
 H    3.6255858    9.9014360    6.6839819  0.00   -0.0336744    0.0365568   -0.0092965
 H    3.6134845    8.5120119    7.7683086  0.00   -0.0224362   -0.0634226    0.0098828
 H    5.5765535   11.6787252    7.0235415  0.00    0.0473327    0.0676168    0.0272305
 H    6.7885694   11.3616100    8.3004575  0.00   -0.0229231    0.0167925   -0.0286192
 H    5.1450430   13.1207777    8.9901595  0.00   -0.0066879   -0.0203111   -0.0050620
 H    5.0568933   11.7030465   10.0554581  0.00   -0.0181860    0.0167213   -0.0416030