24
 Energy =    -384.3455363900
 N    6.3367808    9.4296079    6.7897523  0.00    0.9197572    1.1477074   -0.6556818
 N    8.6353836    9.4867426    6.8293848  0.00   -1.0566847    1.1015049   -0.6873740
 C    7.4760687   10.2887750    6.3466699  0.00    0.1631606   -2.8036869    1.9570496
 H    7.4593057   11.3447471    5.9178247  0.00    0.0214561   -0.5988184    0.1907811
 C   10.0978576    9.8616333    6.8017153  0.00   -0.7495776    0.6501872   -0.4852692
 C   10.2542388   11.1608776    5.9888016  0.00    0.2709956    0.2514622    0.0649528
 C   10.9360394    8.7448845    6.1504358  0.00   -0.0698885   -0.2933536    0.0851856
 H    9.8862946   10.9881284    4.9246982  0.00    0.1980692    0.1268780    0.4735127
 H   11.3529682   11.4650675    5.9666478  0.00   -0.5257963   -0.0152943   -0.0683845
 H    9.6395857   11.9904059    6.4720093  0.00    0.3534551   -0.3169021   -0.2818053
 H   10.8506627    7.7885289    6.7629599  0.00    0.0512544    0.4033847   -0.3554887
 H   10.5592019    8.5546123    5.0913149  0.00    0.2185045    0.0471675    0.5069610
 H   12.0264718    9.0671381    6.1140038  0.00   -0.4872200   -0.1678743    0.0034941
 C    4.8913185    9.8597293    6.8880728  0.00    0.7445628    0.8292753   -0.3435165
 C    4.8549280   11.3912390    6.7295444  0.00   -0.3029542    0.2281738   -0.1713567
 C    4.2705822    9.4986325    8.2457081  0.00    0.0424744   -0.3547385    0.1531894
 H    5.4632254   11.8739496    7.5646810  0.00   -0.3142235   -0.1783476   -0.4091318
 H    3.7758964   11.7541665    6.7854277  0.00    0.5212665   -0.0195735   -0.0508489
 H    5.3017246   11.6782873    5.7210060  0.00   -0.2898570   -0.0194399    0.4873878
 H    4.2469330    8.3684117    8.3800104  0.00    0.0177731    0.5253459    0.0248451
 H    4.8800783    9.9690442    9.0854753  0.00   -0.3108596   -0.2538983   -0.3658883
 H    3.2037313    9.8969609    8.2873503  0.00    0.5067538   -0.1984739   -0.0065051
 H    4.2801672    9.3962284    6.0463626  0.00    0.3895563    0.0560491    0.3298163
 H   10.4646621   10.0390924    7.8656756  0.00   -0.3127159   -0.1488955   -0.3948257
24
 Energy =    -384.3706980766
 N    6.3514760    9.4479456    6.7792769  0.00    0.5291693    0.7516854   -0.4195208
 N    8.6185020    9.5043427    6.8184031  0.00   -0.6289932    0.7197748   -0.4620071
 C    7.4786759   10.2439825    6.3779360  0.00    0.1290394   -1.5980904    1.3274994
 H    7.4596488   11.3351804    5.9208705  0.00    0.0308908   -0.9983332    0.3702788
 C   10.0858824    9.8720231    6.7939621  0.00   -0.6631938    0.4347769   -0.3940553
 C   10.2585688   11.1648960    5.9898374  0.00    0.1335036    0.1716085    0.0101671
 C   10.9349236    8.7401990    6.1517980  0.00   -0.1912340   -0.0343748    0.0831242
 H    9.8894595   10.9901550    4.9322616  0.00    0.1814560    0.1366830    0.3922922
 H   11.3445681   11.4648243    5.9655530  0.00   -0.3547219    0.0179349   -0.0569244
 H    9.6452329   11.9853444    6.4675040  0.00    0.2910067   -0.2090456   -0.2339366
 H   10.8514824    7.7949757    6.7572828  0.00    0.0235437    0.2660234   -0.2493333
 H   10.5626937    8.5553657    5.0994158  0.00    0.1831201    0.0096458    0.3946135
 H   12.0186884    9.0644574    6.1140605  0.00   -0.4158464   -0.1371086    0.0134385
 C    4.9032147    9.8729795    6.8825841  0.00    0.6519850    0.5994071   -0.2069936
 C    4.8500881   11.3948854    6.7268043  0.00   -0.1608843    0.1837309   -0.1087046
 C    4.2712614    9.4929678    8.2481555  0.00    0.1635647   -0.1343923   -0.0666585
 H    5.4582053   11.8711023    7.5581414  0.00   -0.2795723   -0.1217139   -0.3555559
 H    3.7842247   11.7538546    6.7846124  0.00    0.3477382    0.0218956   -0.0448341
 H    5.2970939   11.6779765    5.7287900  0.00   -0.2396195    0.0339324    0.3646372
 H    4.2472177    8.3768079    8.3804087  0.00    0.0259171    0.3384053    0.0271248
 H    4.8751123    9.9649917    9.0796290  0.00   -0.2511827   -0.2195781   -0.2668852
 H    3.2118280    9.8937926    8.2872458  0.00    0.4280051   -0.1736709   -0.0148972
 H    4.2863916    9.3971238    6.0516321  0.00    0.4223741    0.0704626    0.3029846
 H   10.4596664   10.0367169    7.8593672  0.00   -0.3567780   -0.1311937   -0.4051354
24
 Energy =    -384.3980789122
 N    6.3713468    9.4794625    6.7619964  0.00   -0.4001342   -0.1226469    0.0754621
 N    8.5941270    9.5344668    6.7986562  0.00    0.4700696   -0.1694624    0.0632108
 C    7.4847886   10.1845188    6.4350342  0.00   -0.0361089    0.1546517    0.2169198
 H    7.4614794   11.2741766    5.9441535  0.00    0.0367782   -0.9308898    0.4182581
 C   10.0526357    9.8905325    6.7750311  0.00   -0.4096580    0.1081945   -0.1857806
 C   10.2627785   11.1723132    5.9892465  0.00   -0.0140486    0.0393398    0.0032862
 C   10.9223092    8.7437467    6.1561391  0.00   -0.2740783    0.1781573    0.1080008
 H    9.8987053   10.9975897    4.9513097  0.00    0.0940569    0.1343334    0.1007221
 H   11.3293732   11.4664627    5.9627915  0.00   -0.0664530    0.0498050   -0.0279543
 H    9.6593176   11.9765355    6.4561468  0.00    0.1191329    0.0448759   -0.1162554
 H   10.8521515    7.8061850    6.7462951  0.00   -0.0454020    0.1033999   -0.0852447
 H   10.5716361    8.5551077    5.1179284  0.00    0.0739034   -0.0442799    0.1208368
 H   11.9981977    9.0578525    6.1149712  0.00   -0.2903793   -0.0367426    0.0402481
 C    4.9357432    9.8998922    6.8744703  0.00    0.4044244    0.2047519   -0.0471368
 C    4.8445326   11.4036776    6.7223628  0.00   -0.0145499    0.0699080   -0.0417319
 C    4.2824090    9.4904270    8.2400760  0.00    0.2387311    0.0264208   -0.2505041
 H    5.4441560   11.8658449    7.5404743  0.00   -0.1310343    0.0487592   -0.1519139
 H    3.7990066   11.7558766    6.7823742  0.00    0.0433901    0.0745693   -0.0281684
 H    5.2854788   11.6808852    5.7455188  0.00   -0.1031218    0.1508195    0.0692925
 H    4.2487541    8.3908127    8.3818753  0.00    0.0648355    0.1112642   -0.0146463
 H    4.8630778    9.9540942    9.0675752  0.00   -0.0866813   -0.1067242   -0.0595316
 H    3.2328094    9.8851298    8.2862798  0.00    0.2836664   -0.0970031   -0.0671487
 H    4.3093858    9.4011552    6.0670755  0.00    0.4535985    0.0848718    0.2176597
 H   10.4399067   10.0301455    7.8377504  0.00   -0.4104758   -0.0788324   -0.3568811
24
 Energy =    -384.4093045700
 N    6.3588657    9.4870939    6.7580509  0.00   -0.1461240   -0.4008440    0.2445808
 N    8.6088794    9.5387067    6.7933669  0.00    0.1437256   -0.4583306    0.2144361
 C    7.4849754   10.1595661    6.4737282  0.00   -0.0097097    0.3211852   -0.0872303
 H    7.4640978   11.2054736    5.9737513  0.00    0.0225261   -0.5098728    0.3147794
 C   10.0169848    9.9054769    6.7569917  0.00    0.0772153   -0.1317222   -0.0563473
 C   10.2650452   11.1779811    5.9899731  0.00   -0.1226919   -0.0055622   -0.0507646
 C   10.9037723    8.7520040    6.1639048  0.00   -0.2316841    0.2798250    0.0263190
 H    9.9073424   11.0077151    4.9642020  0.00    0.0220141    0.1271763   -0.1300331
 H   11.3185103   11.4694880    5.9601271  0.00    0.1428264    0.0537746    0.0082057
 H    9.6715322   11.9750753    6.4451242  0.00   -0.0227296    0.2446877   -0.0130422
 H   10.8500287    7.8175747    6.7364686  0.00   -0.1170980   -0.0401948    0.0745831
 H   10.5792320    8.5528993    5.1322636  0.00   -0.0222075   -0.0694129   -0.0704141
 H   11.9737398    9.0532437    6.1175061  0.00   -0.1651343    0.0592102    0.0663170
 C    4.9709420    9.9233360    6.8673842  0.00   -0.0398033   -0.0992419    0.1192828
 C    4.8400933   11.4111165    6.7176940  0.00    0.1105558    0.0410515   -0.0022185
 C    4.2984008    9.4883268    8.2256268  0.00    0.2349279    0.1901455   -0.2724614
 H    5.4316091   11.8663822    7.5253229  0.00   -0.0050334    0.1861268    0.0196375
 H    3.8084043   11.7603808    6.7799309  0.00   -0.1778262    0.0860108   -0.0141831
 H    5.2751304   11.6900247    5.7563795  0.00    0.0022534    0.2355942   -0.1643652
 H    4.2529633    8.4041832    8.3814304  0.00    0.1057427   -0.1096532   -0.0620313
 H    4.8534524    9.9439751    9.0590362  0.00    0.0491918   -0.0201863    0.0777285
 H    3.2571155    9.8763977    8.2821111  0.00    0.1428835   -0.0243529   -0.1185325
 H    4.3429199    9.4072425    6.0850832  0.00    0.3719636    0.0594593    0.0751728
 H   10.4100700   10.0232268    7.8100745  0.00   -0.3649431   -0.0175688   -0.1981273
24
 Energy =    -384.4157310349
 N    6.3547494    9.4765001    6.7651385  0.00   -0.0000066   -0.4278437    0.2997726
 N    8.6124239    9.5230433    6.7979947  0.00    0.0170564   -0.4891380    0.2140526
 C    7.4858606   10.1423350    6.5002622  0.00   -0.0047372    0.0340999   -0.0826350
 H    7.4664741   11.1484895    6.0034525  0.00    0.0131483   -0.0501763    0.1489050
 C   10.0029965    9.9089078    6.7431218  0.00    0.0472189   -0.1416687   -0.0500525
 C   10.2612726   11.1819700    5.9879552  0.00   -0.0509243    0.0692218   -0.0382476
 C   10.8835025    8.7680582    6.1688827  0.00   -0.0961235   -0.0188441   -0.0293318
 H    9.9132679   11.0197915    4.9648938  0.00   -0.0230238    0.1157783   -0.2419395
 H   11.3183702   11.4734814    5.9590785  0.00    0.0914206    0.0105247    0.0277221
 H    9.6774476   11.9862939    6.4380547  0.00   -0.0586750    0.2548554    0.0112654
 H   10.8427886    7.8229722    6.7342660  0.00   -0.1544879    0.0444129    0.0751850
 H   10.5823987    8.5485050    5.1375117  0.00   -0.0723786   -0.0469904   -0.1262546
 H   11.9511738    9.0537593    6.1223608  0.00   -0.0666063    0.1249686    0.0724198
 C    4.9870137    9.9331181    6.8687188  0.00   -0.0259952   -0.0661533    0.1570827
 C    4.8420988   11.4181543    6.7142624  0.00    0.0266422    0.0571489   -0.0404341
 C    4.3177671    9.4951308    8.2065820  0.00    0.1151554   -0.0139659   -0.0277288
 H    5.4243507   11.8761195    7.5177915  0.00    0.0625655    0.2412036    0.1009600
 H    3.8058962   11.7667524    6.7777812  0.00   -0.1173217    0.0320843   -0.0147232
 H    5.2691736   11.7069346    5.7546306  0.00    0.0307766    0.2272886   -0.1970408
 H    4.2608870    8.4073121    8.3777465  0.00    0.1429222   -0.0242208   -0.1294690
 H    4.8503668    9.9371550    9.0574151  0.00    0.1154278    0.0304208    0.0951643
 H    3.2784786    9.8702668    8.2735277  0.00    0.0511925    0.0325305   -0.1465181
 H    4.3797829    9.4132843    6.0985593  0.00    0.1854298   -0.0330399   -0.1152910
 H   10.3755651   10.0185559    7.7855440  0.00   -0.2275191    0.0349390    0.0384412
24
 Energy =    -384.4216995586
 N    6.3537160    9.4455404    6.7875839  0.00    0.1676613   -0.2051934    0.2713977
 N    8.6143347    9.4835851    6.8122975  0.00   -0.1602294   -0.2849629    0.0721599
 C    7.4867084   10.1156421    6.5273041  0.00    0.0221351   -0.4659304    0.0696918
 H    7.4694839   11.0947209    6.0387882  0.00    0.0068008    0.3323466   -0.0097947
 C    9.9872522    9.9068148    6.7251790  0.00   -0.0146002   -0.0798184    0.0511676
 C   10.2571651   11.1918269    5.9844983  0.00   -0.1359624    0.0614499   -0.1161724
 C   10.8603468    8.7762218    6.1717571  0.00    0.0944300   -0.1107037   -0.1792986
 H    9.9177582   11.0381671    4.9522365  0.00   -0.0070095    0.1351095   -0.1736381
 H   11.3202176   11.4771550    5.9595979  0.00    0.0278900   -0.0329452    0.0485860
 H    9.6807924   12.0099860    6.4310518  0.00   -0.0330679    0.1659868   -0.0044509
 H   10.8268931    7.8338637    6.7347350  0.00   -0.1804931    0.0021736    0.1247261
 H   10.5815156    8.5422067    5.1366583  0.00   -0.0951146   -0.0302212   -0.1221648
 H   11.9254390    9.0615655    6.1311350  0.00   -0.0098505    0.1333832    0.0663281
 C    5.0054509    9.9429277    6.8778545  0.00   -0.0201800   -0.1168120    0.0095077
 C    4.8427397   11.4291378    6.7073853  0.00    0.1448679    0.1175251    0.0094535
 C    4.3411100    9.4957408    8.1912110  0.00   -0.0428667    0.0596962    0.2210095
 H    5.4206353   11.8990239    7.5157528  0.00    0.0149976    0.2080695    0.0246540
 H    3.8002163   11.7737240    6.7746567  0.00   -0.0444843   -0.0312303   -0.0187226
 H    5.2644139   11.7355434    5.7435593  0.00    0.0029017    0.1543808   -0.1037511
 H    4.2771081    8.4128444    8.3660193  0.00    0.1635386   -0.0937153   -0.1538226
 H    4.8536153    9.9321239    9.0599762  0.00    0.1267799    0.0290898    0.0561571
 H    3.3024148    9.8663169    8.2567032  0.00    0.0031762    0.0457361   -0.1380562
 H    4.4241449    9.4159607    6.1033692  0.00    0.0493240   -0.0616341   -0.1873260
 H   10.3306347   10.0162513    7.7662223  0.00   -0.0794899    0.0657909    0.1836082
24
 Energy =    -384.4270736885
 N    6.3581686    9.4074606    6.8227220  0.00    0.1183373   -0.0450876    0.2052731
 N    8.6113629    9.4333644    6.8286067  0.00   -0.0550077   -0.1350062   -0.0345783
 C    7.4884789   10.0707977    6.5542666  0.00   -0.0286462   -0.3376744    0.0124848
 H    7.4727300   11.0594955    6.0717778  0.00    0.0096740    0.2309616    0.0317474
 C    9.9707010    9.9009461    6.7130054  0.00   -0.1011577    0.0083691    0.0236438
 C   10.2437104   11.2027154    5.9738988  0.00   -0.0339829    0.0520100    0.0021178
 C   10.8442267    8.7813503    6.1638222  0.00    0.1093634   -0.2420239   -0.0599103
 H    9.9222944   11.0626457    4.9336775  0.00   -0.0264443    0.1267566   -0.1530230
 H   11.3236571   11.4789002    5.9626755  0.00   -0.1779883   -0.1023625    0.0536851
 H    9.6828230   12.0393744    6.4239550  0.00   -0.0043269    0.0426900   -0.0495437
 H   10.8028644    7.8419873    6.7425914  0.00   -0.1561135    0.0732376    0.0521025
 H   10.5759555    8.5346364    5.1298319  0.00   -0.0966798   -0.0158004   -0.1337017
 H   11.9010030    9.0750768    6.1425132  0.00    0.0993591    0.1236526    0.0314494
 C    5.0218994    9.9440526    6.8846099  0.00    0.0927439    0.0415408   -0.0162729
 C    4.8540447   11.4457906    6.7029789  0.00    0.0008971    0.0137219   -0.0538586
 C    4.3602300    9.5035999    8.1880196  0.00   -0.1153011   -0.1624882    0.2188863
 H    5.4165310   11.9299841    7.5131760  0.00    0.0346431    0.1910132    0.0199234
 H    3.7924109   11.7784999    6.7707778  0.00    0.1682982   -0.1156654   -0.0250436
 H    5.2595658   11.7692163    5.7293673  0.00   -0.0082000    0.0783575    0.0120375
 H    4.3004210    8.4105374    8.3476936  0.00    0.1583454    0.0328333   -0.1459203
 H    4.8627253    9.9284489    9.0648608  0.00    0.1452480    0.0630572    0.0755753
 H    3.3248674    9.8645993    8.2344759  0.00   -0.1106967    0.0798656   -0.0798091
 H    4.4682816    9.4160627    6.0993829  0.00   -0.0707992   -0.0832365   -0.2213859
 H   10.2851537   10.0173484    7.7568458  0.00    0.0497081    0.0786689    0.2352950
24
 Energy =    -384.4307121898
 N    6.3642642    9.3701837    6.8653238  0.00    0.0619604    0.1684203    0.0746612
 N    8.6108951    9.3803614    6.8417330  0.00   -0.0689647    0.0887422   -0.1603633
 C    7.4872824   10.0257085    6.5732694  0.00    0.0189845   -0.2395004    0.0415386
 H    7.4762973   11.0329861    6.1061329  0.00    0.0052807    0.0528728    0.0780246
 C    9.9514918    9.8957878    6.7032838  0.00   -0.0181696   -0.0096476    0.1078724
 C   10.2305182   11.2139349    5.9665185  0.00   -0.1302917   -0.0464702   -0.0687378
 C   10.8335898    8.7749714    6.1565375  0.00    0.1051693   -0.0174170   -0.0811944
 H    9.9245404   11.0911752    4.9086856  0.00   -0.0004532    0.1193757    0.0191546
 H   11.3157282   11.4744614    5.9682944  0.00   -0.1949766   -0.1146489    0.0579888
 H    9.6843140   12.0672264    6.4145971  0.00    0.0044900   -0.0438984   -0.0640160
 H   10.7735311    7.8528480    6.7518603  0.00   -0.1100676   -0.0078471    0.0490422
 H   10.5657965    8.5267723    5.1156152  0.00   -0.0484231    0.0029004   -0.0199841
 H   11.8860693    9.0934800    6.1538373  0.00    0.0759130    0.0369222   -0.0018206
 C    5.0415291    9.9479956    6.8907552  0.00   -0.0058346   -0.0843327   -0.0755711
 C    4.8628164   11.4588244    6.6955372  0.00    0.1463609    0.0086060    0.0570014
 C    4.3720325    9.5007848    8.1926950  0.00   -0.0902926    0.0810504    0.1105257
 H    5.4153341   11.9680063    7.5123867  0.00   -0.0368676    0.0830863   -0.1058136
 H    3.7958621   11.7760457    6.7659691  0.00    0.1730255   -0.1384576   -0.0246255
 H    5.2550857   11.8030838    5.7178771  0.00   -0.0116782    0.0037048    0.0810313
 H    4.3294071    8.4105627    8.3241652  0.00    0.1158092   -0.0581160   -0.0830501
 H    4.8791140    9.9292044    9.0745771  0.00    0.0587097    0.0056464   -0.0145874
 H    3.3371481    9.8677842    8.2113613  0.00   -0.1081463    0.0377897   -0.0003464
 H    4.5038611    9.4122254    6.0847131  0.00   -0.0389174    0.0095850   -0.0706672
 H   10.2475983   10.0224766    7.7598067  0.00    0.0989691    0.0587762    0.0950604
24
 Energy =    -384.4321943439
 N    6.3673525    9.3629082    6.8854223  0.00   -0.0251313    0.0847943    0.0201103
 N    8.6094934    9.3635815    6.8397859  0.00    0.0607615    0.0317779   -0.1059824
 C    7.4876326   10.0043142    6.5782956  0.00   -0.0173731    0.0339477    0.0000333
 H    7.4778137   11.0254020    6.1227976  0.00    0.0041953   -0.0577011    0.0955753
 C    9.9454443    9.8919012    6.7059474  0.00   -0.0086992    0.0223925   -0.0132941
 C   10.2187212   11.2150103    5.9602608  0.00   -0.0928762   -0.0721407    0.0423850
 C   10.8345081    8.7731926    6.1500437  0.00    0.0289949    0.0059007    0.0381578
 H    9.9249690   11.1071891    4.8999644  0.00   -0.0279893    0.0751600    0.0010957
 H   11.3042035   11.4672310    5.9733190  0.00   -0.1665246   -0.1007696    0.0450320
 H    9.6843322   12.0757851    6.4085376  0.00   -0.0158745   -0.0598231   -0.0583515
 H   10.7574792    7.8556255    6.7581474  0.00   -0.0586966    0.0303021   -0.0169508
 H   10.5594967    8.5240091    5.1088997  0.00   -0.0199698    0.0169758    0.0189527
 H   11.8851038    9.1020500    6.1577717  0.00    0.0593646   -0.0064183   -0.0205488
 C    5.0466499    9.9434397    6.8902557  0.00    0.0215152    0.0529209    0.0177604
 C    4.8739177   11.4634069    6.6961932  0.00    0.0691617   -0.0881326   -0.0141552
 C    4.3723228    9.5049364    8.1985764  0.00   -0.0640265   -0.0197970   -0.0247697
 H    5.4135937   11.9861017    7.5074394  0.00    0.0087974    0.0685208   -0.0530094
 H    3.8045922   11.7683780    6.7630916  0.00    0.1490753   -0.1219284   -0.0160159
 H    5.2535156   11.8156306    5.7167107  0.00    0.0132357   -0.0163337    0.0761385
 H    4.3455162    8.4067114    8.3116515  0.00    0.0772232    0.0388375   -0.0447703
 H    4.8882649    9.9300585    9.0778491  0.00    0.0257852    0.0054679   -0.0266440
 H    3.3353929    9.8710465    8.2031671  0.00   -0.0807226    0.0148106    0.0399203
 H    4.5145758    9.4115539    6.0758455  0.00   -0.0324721    0.0184812   -0.0321200
 H   10.2392147   10.0274275    7.7655590  0.00    0.0939186    0.0397210    0.0325085
24
 Energy =    -384.4331899765
 N    6.3682592    9.3627922    6.8986521  0.00   -0.0376339    0.0080682   -0.0079677
 N    8.6117893    9.3548764    6.8328407  0.00    0.0339443   -0.0075951   -0.0474573
 C    7.4867340    9.9944679    6.5801778  0.00    0.0155765    0.1055495    0.0184579
 H    7.4788448   11.0205793    6.1369773  0.00    0.0002420   -0.0552428    0.0728588
 C    9.9426530    9.8905225    6.7068565  0.00    0.0113096    0.0104049   -0.0056542
 C   10.2058875   11.2110862    5.9592920  0.00   -0.0446432   -0.0483311    0.0104252
 C   10.8374166    8.7722130    6.1482701  0.00   -0.0162901    0.0523613    0.0414099
 H    9.9231188   11.1206939    4.8941747  0.00   -0.0434904    0.0282998    0.0161676
 H   11.2882888   11.4569386    5.9790634  0.00   -0.0945666   -0.0720408    0.0364272
 H    9.6827897   12.0774658    6.4019335  0.00   -0.0584247   -0.0362026   -0.0172720
 H   10.7445943    7.8587538    6.7611496  0.00   -0.0189520    0.0278143   -0.0329976
 H   10.5543436    8.5235366    5.1057061  0.00    0.0109921    0.0292851    0.0669509
 H   11.8887413    9.1068232    6.1587997  0.00    0.0226627   -0.0435942   -0.0241682
 C    5.0497069    9.9435036    6.8916511  0.00    0.0005408    0.0246749    0.0035791
 C    4.8848741   11.4604191    6.6956204  0.00    0.0342831   -0.0436333    0.0197515
 C    4.3680245    9.5061885    8.2010052  0.00    0.0021555    0.0193847   -0.0645854
 H    5.4137203   12.0009908    7.5021184  0.00    0.0248080    0.0274552   -0.0368037
 H    3.8178752   11.7565113    6.7605417  0.00    0.0720310   -0.0901801   -0.0102860
 H    5.2538635   11.8217847    5.7199900  0.00    0.0512828   -0.0261313    0.0109816
 H    4.3594824    8.4064865    8.3016052  0.00    0.0358085    0.0452715   -0.0169747
 H    4.8954729    9.9312414    9.0783658  0.00   -0.0300663   -0.0161557   -0.0651100
 H    3.3289679    9.8740510    8.2008533  0.00   -0.0372058   -0.0171514    0.0581537
 H    4.5177952    9.4119839    6.0679637  0.00    0.0175952    0.0586782    0.0453632
 H   10.2408628   10.0329809    7.7719241  0.00    0.0496956    0.0158923   -0.0702419
24
 Energy =    -384.4337341298
 N    6.3678267    9.3643954    6.9049163  0.00    0.0077918   -0.0395289   -0.0241485
 N    8.6131762    9.3510368    6.8256353  0.00    0.0292228   -0.0413035    0.0189684
 C    7.4876732    9.9923067    6.5833523  0.00   -0.0206801    0.0736378    0.0327541
 H    7.4793410   11.0169413    6.1479219  0.00    0.0015427    0.0072988    0.0428325
 C    9.9417082    9.8905159    6.7078939  0.00   -0.0026229   -0.0107741   -0.0492570
 C   10.1966286   11.2064927    5.9585903  0.00   -0.0579366   -0.0023809    0.0119190
 C   10.8388656    8.7741017    6.1489060  0.00   -0.0159745    0.0606917    0.0433714
 H    9.9195601   11.1294620    4.8924446  0.00   -0.0548237   -0.0108964   -0.0006036
 H   11.2738743   11.4470106    5.9843617  0.00    0.0018634   -0.0340918    0.0261438
 H    9.6784198   12.0759383    6.3975256  0.00   -0.0748010   -0.0259645    0.0080101
 H   10.7365929    7.8620252    6.7609739  0.00    0.0015496    0.0155979   -0.0247568
 H   10.5522322    8.5251730    5.1081655  0.00    0.0148200    0.0302330    0.0525429
 H   11.8922809    9.1067921    6.1578943  0.00   -0.0011081   -0.0539529   -0.0176822
 C    5.0511769    9.9443010    6.8916312  0.00    0.0194171    0.0328495    0.0404924
 C    4.8928429   11.4570666    6.6970814  0.00    0.0470412   -0.0041459   -0.0273855
 C    4.3654302    9.5083641    8.1999280  0.00   -0.0028563    0.0178401   -0.0859917
 H    5.4150739   12.0101977    7.4967494  0.00    0.0442940    0.0104926    0.0013280
 H    3.8295281   11.7445729    6.7585382  0.00   -0.0208276   -0.0477154   -0.0028852
 H    5.2571332   11.8231460    5.7224430  0.00    0.0614760   -0.0366358   -0.0102101
 H    4.3690056    8.4088048    8.2951514  0.00    0.0102374    0.0353217   -0.0048382
 H    4.8973814    9.9308546    9.0744222  0.00   -0.0333155   -0.0043019   -0.0467399
 H    3.3230702    9.8746910    8.2031200  0.00    0.0065164   -0.0368727    0.0532220
 H    4.5199878    9.4157116    6.0663545  0.00    0.0190585    0.0518014    0.0381354
 H   10.2452969   10.0369892    7.7715316  0.00    0.0217926    0.0096033   -0.0742161
24
 Energy =    -384.4341309752
 N    6.3691947    9.3636571    6.9087503  0.00   -0.0173142   -0.0655507   -0.0028262
 N    8.6151210    9.3456442    6.8212823  0.00   -0.0305295   -0.0409898    0.0429796
 C    7.4868510    9.9907953    6.5893882  0.00    0.0442269    0.0287109    0.0264387
 H    7.4799235   11.0144020    6.1591949  0.00    0.0006396    0.0513861    0.0293904
 C    9.9396183    9.8899691    6.7053078  0.00   -0.0152058    0.0013463   -0.0145912
 C   10.1857590   11.2036862    5.9584061  0.00    0.0015509    0.0189236   -0.0214166
 C   10.8392257    8.7785725    6.1513607  0.00   -0.0131121    0.0092756    0.0040978
 H    9.9140632   11.1360581    4.8908853  0.00   -0.0599403   -0.0336764   -0.0087681
 H   11.2631991   11.4377702    5.9898365  0.00    0.0177800   -0.0075777    0.0145842
 H    9.6713409   12.0736464    6.3943033  0.00   -0.0951833   -0.0000977    0.0382518
 H   10.7300122    7.8655706    6.7597424  0.00    0.0124675    0.0109975   -0.0100725
 H   10.5512590    8.5278937    5.1125901  0.00    0.0147099    0.0279550    0.0287306
 H   11.8941729    9.1041385    6.1565638  0.00    0.0034420   -0.0402378   -0.0048284
 C    5.0545162    9.9471099    6.8938997  0.00    0.0337552    0.0028380   -0.0078389
 C    4.9021028   11.4552398    6.6960072  0.00   -0.0036839    0.0383049    0.0123433
 C    4.3631553    9.5109860    8.1947694  0.00    0.0304946    0.0077859   -0.0203507
 H    5.4182444   12.0183248    7.4925426  0.00    0.0482948   -0.0050600    0.0122521
 H    3.8370062   11.7331203    6.7567675  0.00   -0.0307845   -0.0214604   -0.0067340
 H    5.2625661   11.8227354    5.7240089  0.00    0.0783055   -0.0313498   -0.0596615
 H    4.3773414    8.4124025    8.2895011  0.00   -0.0077982    0.0185824   -0.0057424
 H    4.8973345    9.9303547    9.0691425  0.00   -0.0377288    0.0031815   -0.0359788
 H    3.3197922    9.8730187    8.2071314  0.00    0.0055406   -0.0346975    0.0310226
 H    4.5234885    9.4211654    6.0667705  0.00    0.0243852    0.0502824    0.0311811
 H   10.2488184   10.0406297    7.7673798  0.00   -0.0026482    0.0078676   -0.0714615
24
 Energy =    -384.4344640503
 N    6.3689525    9.3593659    6.9125890  0.00    0.0686404   -0.0241563   -0.0198112
 N    8.6146189    9.3385090    6.8195317  0.00   -0.0048547   -0.0162566    0.0535304
 C    7.4894318    9.9897404    6.5969371  0.00   -0.0405931   -0.0457525    0.0321220
 H    7.4805372   11.0139309    6.1717923  0.00    0.0066955    0.0680766    0.0288428
 C    9.9362200    9.8900532    6.7022921  0.00   -0.0225369   -0.0175905   -0.0121726
 C   10.1765929   11.2022903    5.9567909  0.00   -0.0158894    0.0486212   -0.0175851
 C   10.8385566    8.7825159    6.1534800  0.00    0.0069675   -0.0082112   -0.0124742
 H    9.9058918   11.1405237    4.8889344  0.00   -0.0534271   -0.0448955   -0.0138456
 H   11.2538631   11.4290725    5.9955300  0.00    0.0356929    0.0231639   -0.0002718
 H    9.6597388   12.0719319    6.3934272  0.00   -0.0760268   -0.0131489    0.0368254
 H   10.7244751    7.8696555    6.7580979  0.00    0.0149176   -0.0091680    0.0124643
 H   10.5511528    8.5317864    5.1179813  0.00    0.0036791    0.0135457   -0.0253460
 H   11.8958484    9.0998270    6.1553094  0.00   -0.0000721   -0.0232388    0.0081386
 C    5.0601348    9.9499865    6.8948325  0.00    0.0112993    0.0110516    0.0051022
 C    4.9096626   11.4560291    6.6961549  0.00    0.0184280    0.0506743   -0.0288722
 C    4.3633802    9.5134858    8.1896196  0.00    0.0009525   -0.0006985    0.0026540
 H    5.4235640   12.0256769    7.4891415  0.00    0.0431025   -0.0106598    0.0230874
 H    3.8427326   11.7216565    6.7546393  0.00   -0.0440227    0.0110338   -0.0090656
 H    5.2717387   11.8211312    5.7218728  0.00    0.0593797   -0.0364862   -0.0366235
 H    4.3846986    8.4167758    8.2837840  0.00   -0.0153580   -0.0133236   -0.0046730
 H    4.8952454    9.9300252    9.0624383  0.00   -0.0101316    0.0258264    0.0123506
 H    3.3172642    9.8696495    8.2120173  0.00    0.0224039   -0.0324938    0.0028121
 H    4.5287027    9.4289193    6.0688424  0.00    0.0072448    0.0274037   -0.0101935
 H   10.2511030   10.0443525    7.7594964  0.00   -0.0147174    0.0133144   -0.0259819
24
 Energy =    -384.4347316035
 N    6.3724507    9.3541801    6.9142656  0.00   -0.0299997    0.0020233   -0.0019416
 N    8.6147555    9.3318001    6.8220253  0.00   -0.0300184    0.0206629    0.0263754
 C    7.4886659    9.9874507    6.6041891  0.00    0.0451031   -0.0300079    0.0082987
 H    7.4814731   11.0164040    6.1836294  0.00    0.0064428    0.0261528    0.0476590
 C    9.9321007    9.8890314    6.6992854  0.00    0.0031339    0.0112285   -0.0199830
 C   10.1692373   11.2044048    5.9545290  0.00   -0.0228014    0.0148767   -0.0007392
 C   10.8378973    8.7850709    6.1544035  0.00    0.0115754   -0.0320779   -0.0241848
 H    9.8964530   11.1408989    4.8866053  0.00   -0.0390776   -0.0348658   -0.0051410
 H   11.2492280   11.4244410    5.9995541  0.00    0.0026057    0.0425540   -0.0149500
 H    9.6462818   12.0700206    6.3952135  0.00   -0.0491353   -0.0220557    0.0229727
 H   10.7214575    7.8721059    6.7575906  0.00    0.0128166   -0.0156490    0.0172498
 H   10.5514049    8.5354284    5.1201642  0.00   -0.0013570    0.0000494   -0.0533322
 H   11.8968316    9.0951770    6.1549872  0.00    0.0013466   -0.0030319    0.0159983
 C    5.0650921    9.9530024    6.8957694  0.00    0.0196230    0.0043245    0.0014438
 C    4.9159596   11.4598248    6.6945234  0.00    0.0168379    0.0205387   -0.0227126
 C    4.3642363    9.5151787    8.1856172  0.00    0.0054508   -0.0122535    0.0286803
 H    5.4302318   12.0303927    7.4881576  0.00    0.0246142   -0.0121460    0.0082030
 H    3.8441667   11.7142539    6.7524443  0.00   -0.0012664    0.0307929   -0.0178453
 H    5.2823532   11.8178377    5.7177125  0.00    0.0377673   -0.0289272   -0.0135193
 H    4.3890081    8.4191770    8.2793386  0.00   -0.0129304   -0.0252572   -0.0040680
 H    4.8929629    9.9314216    9.0584542  0.00    0.0058161    0.0317393    0.0377150
 H    3.3170827    9.8650045    8.2156165  0.00    0.0117275   -0.0187031   -0.0208932
 H    4.5336023    9.4365622    6.0699902  0.00   -0.0048901    0.0089691   -0.0395929
 H   10.2511734   10.0478219    7.7514665  0.00   -0.0116479    0.0176006    0.0253438
24
 Energy =    -384.4348891338
 N    6.3724954    9.3509601    6.9147641  0.00    0.0086772    0.0344808   -0.0067607
 N    8.6134547    9.3289666    6.8251254  0.00    0.0352590    0.0215118    0.0053730
 C    7.4907469    9.9861519    6.6083438  0.00   -0.0337130   -0.0067301    0.0041133