30
 Energy =    -462.9047716249
 N    6.5968367   10.0276593    7.4883674  0.00    0.0438761    0.0145655    0.1499359
 N    8.6117585    9.6115469    6.5039465  0.00   -0.0430377   -0.1007370   -0.1165824
 C    7.6037878   10.4337459    6.7351034  0.00   -0.0033017    0.0262610   -0.0091347
 H    7.6030979   11.4551867    6.3013909  0.00    0.0004824    0.0452643   -0.0191952
 C    9.6792910    9.9896591    5.5788252  0.00    0.0675146    0.0980378    0.0351370
 C    9.1297305   10.0944544    4.1482818  0.00   -0.1455274   -0.0012642    0.0113548
 C   10.7350790    8.8847065    5.6266570  0.00    0.0041321   -0.0490073    0.0301798
 C   10.3366026   11.3187881    5.9800675  0.00   -0.0382422    0.0635685    0.0362963
 H    8.6568844    9.1420276    3.8507640  0.00    0.0033102    0.0050002   -0.0106364
 H    9.9329818   10.3262730    3.4260560  0.00    0.0145189   -0.0177928    0.0480775
 H    8.3667814   10.8899226    4.0708155  0.00    0.0034175    0.0002296   -0.0100245
 H   10.7183845   11.2630690    7.0143200  0.00    0.0061678    0.0036142    0.0024176
 H    9.6297695   12.1650131    5.9212025  0.00    0.0050365   -0.0008177   -0.0002218
 H   11.1836076   11.5521876    5.3109126  0.00   -0.0046868   -0.0300861    0.0055034
 H   11.1598209    8.8007525    6.6420608  0.00   -0.0152418   -0.0108929   -0.0013929
 H   10.2853851    7.9113906    5.3646749  0.00   -0.0009720    0.0088995    0.0129033
 H   11.5596769    9.0928091    4.9222822  0.00   -0.0063123    0.0050340   -0.0014385
 C    5.5307202   10.9557807    7.8637728  0.00   -0.0639644    0.0422857   -0.0911787
 C    6.0850947   12.0617466    8.7741409  0.00    0.1446568   -0.0088195   -0.0072619
 C    4.4820967   10.1545758    8.6360349  0.00   -0.0050795   -0.0547631    0.0112273
 C    4.8640707   11.5852231    6.6312297  0.00    0.0378597    0.0158878   -0.0734022
 H    6.5679200   11.6183901    9.6626703  0.00   -0.0035043    0.0107270    0.0034753
 H    5.2822132   12.7398681    9.1146950  0.00   -0.0145587   -0.0461793   -0.0204434
 H    6.8402527   12.6714682    8.2466419  0.00   -0.0026267    0.0068701    0.0070369
 H    4.4751136   10.7994759    5.9604789  0.00   -0.0058445    0.0004678   -0.0041661
 H    5.5678378   12.2100254    6.0538282  0.00   -0.0049866    0.0003713    0.0011776
 H    4.0211156   12.2323624    6.9313253  0.00    0.0046448   -0.0250842    0.0186782
 H    4.0507708    9.3654976    7.9958309  0.00    0.0150318   -0.0073961    0.0086572
 H    4.9406911    9.6672323    9.5135960  0.00    0.0006290   -0.0024008   -0.0137549
 H    3.6611018   10.8063757    8.9831242  0.00    0.0061739    0.0042760   -0.0026662
30
 Energy =    -462.9050486484
 N    6.5986956   10.0282819    7.4947154  0.00    0.0687307    0.0444350    0.0582249
 N    8.6099375    9.6072881    6.4990108  0.00   -0.0717762   -0.0098660   -0.0726991
 C    7.6036488   10.4348632    6.7347162  0.00    0.0020202   -0.0479157    0.0189947
 H    7.6031183   11.4571080    6.3005766  0.00    0.0002739    0.0268627   -0.0110185
 C    9.6821494    9.9938147    5.5803114  0.00   -0.0247705   -0.0100148   -0.0110460
 C    9.1235690   10.0944042    4.1487614  0.00    0.0419292    0.0110734    0.0135415
 C   10.7352547    8.8826376    5.6279339  0.00    0.0101095    0.0377742   -0.0084519
 C   10.3349835   11.3214852    5.9816008  0.00    0.0237305    0.0238696    0.0157910
 H    8.6570240    9.1422421    3.8503140  0.00   -0.0225603   -0.0262840   -0.0098159
 H    9.9335951   10.3255226    3.4280894  0.00   -0.0368247   -0.0253838    0.0704051
 H    8.3669248   10.8899352    4.0703895  0.00   -0.0476863    0.0408109   -0.0124850
 H   10.7186462   11.2632294    7.0144189  0.00    0.0051812    0.0113712    0.0129641
 H    9.6299821   12.1649841    5.9211893  0.00   -0.0233744    0.0382688    0.0007325
 H   11.1834085   11.5509195    5.3111414  0.00   -0.0176442   -0.0220759    0.0173942
 H   11.1591771    8.8002985    6.6420009  0.00   -0.0030458   -0.0168418    0.0221627
 H   10.2853450    7.9117726    5.3652218  0.00   -0.0174977   -0.0115799    0.0075694
 H   11.5594099    9.0930275    4.9222197  0.00   -0.0103135   -0.0056481    0.0104757
 C    5.5280135   10.9575768    7.8599131  0.00    0.0247231    0.0011331    0.0135902
 C    6.0912200   12.0613805    8.7738321  0.00   -0.0414483   -0.0012885   -0.0164568
 C    4.4818839   10.1522637    8.6365120  0.00   -0.0091255    0.0317640   -0.0201150
 C    4.8656737   11.5858998    6.6281223  0.00   -0.0230480    0.0054077   -0.0264236
 H    6.5677738   11.6188527    9.6628162  0.00    0.0228886   -0.0114778    0.0259879
 H    5.2815981   12.7379204    9.1138279  0.00    0.0366328   -0.0675668   -0.0309017
 H    6.8401422   12.6717661    8.2469372  0.00    0.0474576    0.0364699   -0.0205307
 H    4.4748663   10.7994989    5.9603037  0.00   -0.0053497   -0.0029760   -0.0179140
 H    5.5676262   12.2100449    6.0538768  0.00    0.0232953    0.0265429   -0.0284148
 H    4.0213123   12.2313046    6.9321157  0.00    0.0182193   -0.0289486    0.0041525
 H    4.0514092    9.3651898    7.9962004  0.00    0.0026474   -0.0285922   -0.0039324
 H    4.9407207    9.6671382    9.5130158  0.00    0.0160641   -0.0119268    0.0024276
 H    3.6613652   10.8065630    8.9830130  0.00    0.0099662   -0.0113492   -0.0036582
30
 Energy =    -462.9052599171
 N    6.6028934   10.0306908    7.5008307  0.00    0.0252153    0.0255664    0.0518521
 N    8.6056215    9.6045513    6.4929797  0.00   -0.0254649   -0.0187946   -0.0559392
 C    7.6036694   10.4332385    6.7353920  0.00    0.0019541    0.0426381   -0.0194665
 H    7.6031423   11.4593943    6.2996253  0.00    0.0000360   -0.0283992    0.0127117
 C    9.6825293    9.9955825    5.5805918  0.00   -0.0503686   -0.0290704   -0.0081152
 C    9.1222145   10.0948961    4.1496469  0.00    0.0059566    0.0026951    0.0198745
 C   10.7358198    8.8832920    5.6282230  0.00   -0.0214626    0.0213144    0.0033784
 C   10.3352197   11.3240487    5.9831531  0.00   -0.0121940   -0.0054377    0.0070311
 H    8.6560471    9.1411367    3.8496157  0.00   -0.0126134   -0.0024590    0.0037669
 H    9.9322075   10.3239416    3.4324536  0.00   -0.0092080   -0.0123613    0.0346774
 H    8.3647803   10.8918446    4.0695780  0.00   -0.0273994    0.0198183   -0.0083105
 H   10.7190288   11.2638522    7.0150701  0.00    0.0068106    0.0154980    0.0228335
 H    9.6290079   12.1667555    5.9212112  0.00   -0.0143616    0.0371543    0.0038683
 H   11.1824796   11.5492176    5.3120677  0.00   -0.0011108   -0.0089244    0.0071860
 H   11.1586916    8.7992784    6.6429977  0.00   -0.0024176   -0.0124698    0.0155911
 H   10.2845094    7.9114438    5.3658669  0.00   -0.0096025    0.0099045    0.0100795
 H   11.5587861    9.0928870    4.9226704  0.00    0.0053798   -0.0022491    0.0015764
 C    5.5277150   10.9585997    7.8584768  0.00    0.0471598   -0.0130147    0.0260077
 C    6.0925786   12.0611325    8.7728997  0.00   -0.0057663   -0.0121200   -0.0154168
 C    4.4813483   10.1525099    8.6358350  0.00    0.0209674    0.0121072   -0.0175023
 C    4.8654612   11.5865197    6.6252271  0.00    0.0128699   -0.0088755   -0.0007089
 H    6.5687647   11.6185762    9.6641031  0.00    0.0127581   -0.0047921   -0.0001278
 H    5.2829764   12.7337397    9.1119239  0.00    0.0091556   -0.0331215   -0.0153408
 H    6.8422939   12.6736311    8.2461375  0.00    0.0279597    0.0194077   -0.0084052
 H    4.4744848   10.7993771    5.9593785  0.00   -0.0065846   -0.0065401   -0.0268959
 H    5.5685968   12.2112956    6.0525799  0.00    0.0142087    0.0233431   -0.0295938
 H    4.0222665   12.2293954    6.9327342  0.00    0.0015279   -0.0123543    0.0019762
 H    4.0518777    9.3637008    7.9962204  0.00    0.0025635   -0.0202030   -0.0021459
 H    4.9414887    9.6665415    9.5128211  0.00    0.0086446    0.0004981   -0.0137971
 H    3.6619739   10.8061431    8.9827865  0.00   -0.0052521   -0.0027628   -0.0000731
30
 Energy =    -462.9054502297
 N    6.6090945   10.0349318    7.5124262  0.00    0.0655298    0.0213495   -0.0372011
 N    8.5993215    9.5991586    6.4816931  0.00   -0.0623551    0.0394518    0.0088834
 C    7.6037836   10.4355561    6.7343296  0.00   -0.0038224   -0.0536255    0.0248539
 H    7.6031739   11.4599216    6.2994690  0.00    0.0006284   -0.0077868    0.0037026
 C    9.6801230    9.9964868    5.5807844  0.00   -0.0369917   -0.0242836   -0.0016327
 C    9.1191266   10.0955041    4.1520945  0.00   -0.0294464    0.0026302   -0.0065062
 C   10.7347319    8.8846767    5.6292181  0.00   -0.0146602    0.0042999    0.0053762
 C   10.3338619   11.3268624    5.9855911  0.00   -0.0405172   -0.0262581   -0.0001879
 H    8.6543106    9.1401014    3.8491367  0.00   -0.0063502    0.0213480    0.0183027
 H    9.9305653   10.3213742    3.4395760  0.00    0.0158787    0.0028156   -0.0035870
 H    8.3609294   10.8949813    4.0680890  0.00    0.0026144   -0.0123708    0.0003332
 H   10.7199753   11.2656354    7.0173916  0.00   -0.0050581    0.0169220    0.0125226
 H    9.6271708   12.1710849    5.9215112  0.00    0.0072890    0.0189362    0.0083612
 H   11.1815300   11.5466134    5.3134788  0.00   -0.0015851    0.0007829    0.0065620
 H   11.1578490    8.7973004    6.6450028  0.00   -0.0108702   -0.0014654   -0.0021359
 H   10.2830556    7.9120775    5.3673933  0.00   -0.0068614    0.0204150    0.0088211
 H   11.5585637    9.0926901    4.9231429  0.00   -0.0020143   -0.0009563    0.0101702
 C    5.5300083   10.9591832    7.8577454  0.00    0.0381327   -0.0174638    0.0172445
 C    6.0956725   12.0598707    8.7708136  0.00    0.0290660    0.0056362    0.0025278
 C    4.4824153   10.1527559    8.6341185  0.00    0.0129144   -0.0011188   -0.0066976
 C    4.8668854   11.5866397    6.6215164  0.00    0.0396905   -0.0180150    0.0177039
 H    6.5705255   11.6181726    9.6652380  0.00    0.0057184    0.0017747   -0.0278527
 H    5.2846069   12.7269339    9.1088041  0.00   -0.0154032    0.0048541    0.0006313
 H    6.8462066   12.6768179    8.2449301  0.00   -0.0015982   -0.0088560    0.0090299
 H    4.4735644   10.7987914    5.9564813  0.00    0.0060636    0.0032031   -0.0198807
 H    5.5704188   12.2141486    6.0492444  0.00   -0.0075918    0.0071024   -0.0190634
 H    4.0232685   12.2264355    6.9337167  0.00    0.0016611   -0.0049480   -0.0050392
 H    4.0527223    9.3607922    7.9962247  0.00    0.0117106    0.0012204    0.0029673
 H    4.9428164    9.6660527    9.5113849  0.00    0.0060972    0.0084170   -0.0206074
 H    3.6621970   10.8056629    8.9825510  0.00    0.0014964   -0.0080069   -0.0069902
30
 Energy =    -462.9055173915
 N    6.6141064   10.0374197    7.5156685  0.00   -0.0167540   -0.0195542    0.0030011
 N    8.5943933    9.5984707    6.4775243  0.00    0.0153811   -0.0149846    0.0123279
 C    7.6036757   10.4342795    6.7349271  0.00    0.0004717    0.0427328   -0.0187781
 H    7.6032115   11.4599998    6.2994765  0.00    0.0004120   -0.0228126    0.0102305
 C    9.6779554    9.9961077    5.5808497  0.00   -0.0401390   -0.0082168    0.0051776
 C    9.1166315   10.0958499    4.1527803  0.00   -0.0006668    0.0038301   -0.0161070
 C   10.7338183    8.8853124    5.6298327  0.00   -0.0137614    0.0024516    0.0054436
 C   10.3317878   11.3270882    5.9865818  0.00   -0.0240382   -0.0199188   -0.0007052
 H    8.6533974    9.1404986    3.8496152  0.00   -0.0135847    0.0139613    0.0154092
 H    9.9305290   10.3204587    3.4422785  0.00    0.0089888    0.0045942   -0.0067877
 H    8.3595413   10.8957336    4.0675113  0.00   -0.0006013   -0.0097117    0.0018339
 H   10.7201492   11.2669655    7.0187344  0.00   -0.0163325    0.0138033   -0.0016590
 H    9.6267477   12.1734562    5.9219353  0.00    0.0114563    0.0084939    0.0089370
 H   11.1810731   11.5455868    5.3142865  0.00   -0.0164429   -0.0016962    0.0146931
 H   11.1570868    8.7964747    6.6456873  0.00   -0.0137949    0.0034320   -0.0047979
 H   10.2822275    7.9130841    5.3683280  0.00   -0.0089669    0.0130957    0.0055745
 H   11.5583647    9.0925865    4.9237214  0.00   -0.0088641    0.0008645    0.0142736
 C    5.5321903   10.9588391    7.8579488  0.00    0.0410572   -0.0111761    0.0012027
 C    6.0981555   12.0596187    8.7701047  0.00    0.0005839    0.0132800    0.0077404
 C    4.4832580   10.1527495    8.6332295  0.00    0.0136171   -0.0021478   -0.0055410
 C    4.8689530   11.5860512    6.6206177  0.00    0.0241199   -0.0130538    0.0147069
 H    6.5714257   11.6181039    9.6646494  0.00    0.0129576   -0.0012422   -0.0205123
 H    5.2846572   12.7244104    9.1075834  0.00   -0.0083946    0.0081821    0.0014592
 H    6.8476574   12.6777334    8.2448084  0.00    0.0011611   -0.0084063    0.0062997
 H    4.4734400   10.7987028    5.9546314  0.00    0.0170796    0.0107954   -0.0086109
 H    5.5708244   12.2155117    6.0472536  0.00   -0.0117714   -0.0005960   -0.0119606
 H    4.0237485   12.2250575    6.9339330  0.00    0.0160132   -0.0122724   -0.0090016
 H    4.0535200    9.3597159    7.9963562  0.00    0.0142207    0.0060394    0.0010151
 H    4.9435702    9.6661729    9.5100568  0.00    0.0082295    0.0054831   -0.0130999
 H    3.6623780   10.8051742    8.9821859  0.00    0.0077559   -0.0093012   -0.0111363
30
 Energy =    -462.9055668695
 N    6.6158192   10.0376189    7.5168943  0.00   -0.0118006   -0.0213211   -0.0011756
 N    8.5926381    9.5977322    6.4765066  0.00    0.0119453   -0.0132884    0.0152160
 C    7.6036449   10.4351113    6.7345728  0.00    0.0005855    0.0042979   -0.0023460
 H    7.6032531   11.4591622    6.2998779  0.00    0.0002685    0.0019164   -0.0002878
 C    9.6749179    9.9954738    5.5810882  0.00    0.0006266    0.0021577   -0.0031608
 C    9.1158446   10.0962711    4.1521167  0.00   -0.0018435   -0.0004126    0.0005724
 C   10.7328834    8.8858885    5.6302775  0.00   -0.0257186    0.0022282    0.0046402
 C   10.3297934   11.3261761    5.9869712  0.00   -0.0180363   -0.0021718    0.0043911
 H    8.6522015    9.1413173    3.8506150  0.00   -0.0162938    0.0056700    0.0070788
 H    9.9308416   10.3202670    3.4432133  0.00    0.0103271    0.0057851   -0.0114314
 H    8.3588045   10.8956267    4.0673515  0.00   -0.0037631   -0.0030458   -0.0013014
 H   10.7193161   11.2682852    7.0191635  0.00   -0.0210947    0.0070772   -0.0050775
 H    9.6271448   12.1749651    5.9225878  0.00    0.0093204    0.0014917    0.0073847
 H   11.1798914   11.5450208    5.3154831  0.00   -0.0198012   -0.0058070    0.0131082
 H   11.1560097    8.7963019    6.6457465  0.00   -0.0131492    0.0057343    0.0015171
 H   10.2813298    7.9141161    5.3690101  0.00   -0.0104106    0.0044140    0.0027886
 H   11.5576947    9.0925627    4.9248187  0.00   -0.0070795    0.0045306    0.0095241
 C    5.5353100   10.9581072    7.8581597  0.00   -0.0022940    0.0044895    0.0012910
 C    6.0989358   12.0603430    8.7702366  0.00    0.0021880   -0.0013574   -0.0006477
 C    4.4841649   10.1528299    8.6325221  0.00    0.0257086   -0.0010212   -0.0055245
 C    4.8709468   11.5851401    6.6209873  0.00    0.0188162   -0.0052004   -0.0011349
 H    6.5725847   11.6179719    9.6633893  0.00    0.0157311   -0.0010752   -0.0089292
 H    5.2843836   12.7236421    9.1070720  0.00   -0.0096446    0.0118559    0.0035109
 H    6.8484474   12.6777487    8.2450343  0.00    0.0040491   -0.0017680    0.0036301
 H    4.4743356   10.7992846    5.9534119  0.00    0.0215775    0.0083632   -0.0019586
 H    5.5704022   12.2160922    6.0457374  0.00   -0.0094767   -0.0041668   -0.0060026
 H    4.0249183   12.2237347    6.9335228  0.00    0.0191444   -0.0137320   -0.0047577
 H    4.0546390    9.3595595    7.9964618  0.00    0.0131943    0.0026459   -0.0051750
 H    4.9443978    9.6664714    9.5088700  0.00    0.0099729    0.0011311   -0.0044903
 H    3.6629799   10.8043919    8.9813977  0.00    0.0063877   -0.0034702   -0.0106302
30
 Energy =    -462.9056154310
 N    6.6173520   10.0367715    7.5177383  0.00   -0.0109838   -0.0111348    0.0079882
 N    8.5911021    9.5965759    6.4764395  0.00    0.0097590   -0.0125337    0.0018387
 C    7.6036370   10.4353597    6.7344470  0.00    0.0027003   -0.0148636    0.0047621
 H    7.6033122   11.4586698    6.3001660  0.00   -0.0001845    0.0099652   -0.0035437
 C    9.6720304    9.9948185    5.5809804  0.00    0.0151129    0.0167434    0.0078008
 C    9.1150260   10.0966645    4.1516368  0.00    0.0027281    0.0014701    0.0009301
 C   10.7302831    8.8867494    5.6309514  0.00   -0.0021997    0.0005242    0.0001610
 C   10.3267012   11.3251678    5.9876451  0.00   -0.0031752    0.0095461    0.0050175
 H    8.6499565    9.1424346    3.8520226  0.00   -0.0159577   -0.0024889   -0.0019277
 H    9.9317529   10.3204104    3.4434954  0.00   -0.0018021    0.0015988   -0.0043819
 H    8.3577335   10.8954307    4.0670701  0.00   -0.0037271    0.0028214   -0.0034393
 H   10.7171994   11.2700563    7.0193437  0.00   -0.0224055   -0.0021785    0.0003142
 H    9.6280423   12.1766664    5.9236851  0.00   -0.0035800    0.0020527    0.0032848
 H   11.1774993   11.5440815    5.3174656  0.00   -0.0166395   -0.0080363    0.0074827
 H   11.1541401    8.7964645    6.6459862  0.00   -0.0171219    0.0080821    0.0044235
 H   10.2797491    7.9153911    5.3698663  0.00   -0.0156348   -0.0081447   -0.0010779
 H   11.5566111    9.0928219    4.9264810  0.00   -0.0146319    0.0052709    0.0106168
 C    5.5381616   10.9576706    7.8586727  0.00   -0.0164694    0.0079315   -0.0160685
 C    6.0997735   12.0608846    8.7702327  0.00   -0.0027218    0.0005064   -0.0013368
 C    4.4867364   10.1529948    8.6314179  0.00    0.0016296    0.0003128   -0.0002634
 C    4.8740883   11.5839185    6.6212553  0.00    0.0027271    0.0031065   -0.0101002
 H    6.5747615   11.6177692    9.6616363  0.00    0.0156276   -0.0007160    0.0033038
 H    5.2835543   12.7235573    9.1067524  0.00    0.0024771    0.0035923    0.0012420
 H    6.8495892   12.6777584    8.2454381  0.00    0.0042706    0.0038311    0.0003146
 H    4.4765460   10.8003384    5.9520217  0.00    0.0226645   -0.0023454    0.0005641
 H    5.5694698   12.2164905    6.0437840  0.00    0.0038502   -0.0007169   -0.0037050
 H    4.0272599   12.2215650    6.9328480  0.00    0.0165901   -0.0115847    0.0006687
 H    4.0565587    9.3594905    7.9962120  0.00    0.0168728    0.0018141   -0.0091964
 H    4.9458864    9.6668267    9.5074350  0.00    0.0153781   -0.0046980    0.0071353
 H    3.6639609   10.8034151    8.9799708  0.00    0.0143175   -0.0037772   -0.0121725
30
 Energy =    -462.9056508296
 N    6.6195624   10.0363524    7.5205201  0.00   -0.0065632   -0.0050572   -0.0088034
 N    8.5888131    9.5943523    6.4746800  0.00    0.0107512   -0.0011005    0.0081740
 C    7.6037682   10.4350539    6.7344797  0.00   -0.0055657   -0.0257988    0.0146685
 H    7.6033636   11.4585582    6.3003347  0.00    0.0004290    0.0049713   -0.0018885
 C    9.6692809    9.9951462    5.5815522  0.00    0.0223128    0.0101066   -0.0042774
 C    9.1136137   10.0972696    4.1513480  0.00    0.0057809   -0.0003099    0.0059777
 C   10.7279410    8.8877000    5.6317532  0.00   -0.0061012   -0.0054016    0.0025853
 C   10.3232448   11.3248901    5.9888199  0.00    0.0034863    0.0201588    0.0093055
 H    8.6468777    9.1433897    3.8532812  0.00   -0.0114416   -0.0037285   -0.0062194
 H    9.9322756   10.3202205    3.4446466  0.00   -0.0101354   -0.0003699   -0.0038815
 H    8.3561241   10.8956983    4.0664432  0.00   -0.0015207    0.0067865   -0.0043705
 H   10.7142990   11.2719301    7.0200461  0.00   -0.0222910   -0.0093440    0.0071735
 H    9.6283790   12.1791544    5.9249222  0.00   -0.0133562    0.0002516   -0.0004149
 H   11.1744329   11.5424795    5.3198346  0.00   -0.0077190   -0.0059927   -0.0009172
 H   11.1513145    8.7967312    6.6466295  0.00   -0.0166740    0.0094146    0.0099070
 H   10.2772417    7.9163885    5.3708778  0.00   -0.0149492   -0.0085605   -0.0028344
 H   11.5547440    9.0932654    4.9287267  0.00   -0.0080395    0.0077280    0.0020573
 C    5.5408446   10.9575133    7.8580719  0.00   -0.0204052    0.0092537   -0.0044402
 C    6.1011923   12.0614657    8.7699812  0.00   -0.0046185   -0.0043187   -0.0030787
 C    4.4890013   10.1531145    8.6301920  0.00    0.0058797   -0.0058274    0.0024455
 C    4.8775474   11.5828520    6.6206433  0.00   -0.0037060    0.0069378   -0.0212307
 H    6.5777642   11.6175412    9.6601235  0.00    0.0109037    0.0016094    0.0067686
 H    5.2831414   12.7226066    9.1060351  0.00    0.0102181    0.0024515    0.0024946
 H    6.8513144   12.6783130    8.2457367  0.00    0.0016631    0.0069905   -0.0017766
 H    4.4795589   10.8010369    5.9501711  0.00    0.0225662   -0.0117294    0.0012399
 H    5.5691122   12.2173493    6.0411694  0.00    0.0132651    0.0004416    0.0003891
 H    4.0302949   12.2185990    6.9323950  0.00    0.0071522   -0.0035568    0.0049070
 H    4.0594311    9.3591675    7.9955972  0.00    0.0164715   -0.0008339   -0.0135670
 H    4.9482780    9.6669190    9.5061288  0.00    0.0142740   -0.0033742    0.0079727
 H    3.6657178   10.8021558    8.9779568  0.00    0.0074342    0.0041352   -0.0077222
30
 Energy =    -462.9056857178
 N    6.6203457   10.0352903    7.5215359  0.00   -0.0098843    0.0011293   -0.0049700
 N    8.5882620    9.5926719    6.4745513  0.00   -0.0016918    0.0113314    0.0068509
 C    7.6034705   10.4339480    6.7351381  0.00    0.0099718   -0.0214307    0.0028943
 H    7.6034394   11.4581626    6.3006158  0.00   -0.0001693   -0.0074666    0.0036827
 C    9.6678627    9.9957172    5.5817415  0.00    0.0134729    0.0041411   -0.0001554
 C    9.1129057   10.0977380    4.1511690  0.00   -0.0042036   -0.0019395    0.0065078
 C   10.7254811    8.8880255    5.6326242  0.00   -0.0008712   -0.0025708   -0.0016389
 C   10.3203642   11.3254454    5.9901848  0.00    0.0057464    0.0139012    0.0027472
 H    8.6436815    9.1442501    3.8541655  0.00   -0.0027467    0.0000239   -0.0070182
 H    9.9322678   10.3202489    3.4448139  0.00   -0.0143489   -0.0027613   -0.0031652
 H    8.3549948   10.8960122    4.0657757  0.00    0.0030557    0.0076591   -0.0035844
 H   10.7103741   11.2729431    7.0210248  0.00   -0.0164401   -0.0121243    0.0182291
 H    9.6280043   12.1811041    5.9259663  0.00   -0.0230866    0.0022448   -0.0034316
 H   11.1714723   11.5410103    5.3216920  0.00    0.0037151    0.0002634   -0.0062913
 H   11.1478892    8.7976881    6.6476025  0.00   -0.0144051    0.0068686    0.0147246
 H   10.2742921    7.9168985    5.3715162  0.00   -0.0131175   -0.0067465   -0.0027121
 H   11.5527406    9.0941404    4.9307327  0.00   -0.0037337    0.0051960   -0.0020355
 C    5.5423689   10.9576950    7.8575192  0.00   -0.0128873    0.0024130   -0.0028051
 C    6.1019835   12.0618845    8.7697986  0.00    0.0042205   -0.0064254   -0.0035500
 C    4.4913861   10.1527300    8.6293990  0.00    0.0021805   -0.0003422    0.0018848
 C    4.8804134   11.5822134    6.6192739  0.00   -0.0052361    0.0070597   -0.0110932
 H    6.5808582   11.6175129    9.6589158  0.00    0.0028524    0.0042955    0.0055986
 H    5.2832466   12.7225174    9.1058283  0.00    0.0143113    0.0003256    0.0037165
 H    6.8525504   12.6788982    8.2460274  0.00   -0.0024098    0.0074156   -0.0031402
 H    4.4836033   10.8009603    5.9487355  0.00    0.0163640   -0.0218139   -0.0046383
 H    5.5694571   12.2179558    6.0390943  0.00    0.0230005    0.0041144    0.0007907
 H    4.0331846   12.2161183    6.9321872  0.00   -0.0041447    0.0046182    0.0041316
 H    4.0628966    9.3590944    7.9942780  0.00    0.0139957   -0.0062104   -0.0150302
 H    4.9510939    9.6669562    9.5054062  0.00    0.0125390   -0.0025586    0.0071536
 H    3.6675841   10.8013831    8.9757840  0.00    0.0034687    0.0053024   -0.0029966
30
 Energy =    -462.9057303928
 N    6.6201039   10.0337848    7.5226576  0.00    0.0150388    0.0051963   -0.0145408
 N    8.5877123    9.5912387    6.4750162  0.00    0.0108924    0.0004920   -0.0047104
 C    7.6040850   10.4315982    6.7357576  0.00   -0.0206162    0.0054183    0.0112558
 H    7.6035123   11.4568172    6.3013805  0.00    0.0006131   -0.0197780    0.0083007
 C    9.6667925    9.9968010    5.5821935  0.00   -0.0150493   -0.0036293   -0.0002958
 C    9.1115406   10.0981935    4.1512757  0.00   -0.0084412    0.0010875    0.0047589
 C   10.7223171    8.8882616    5.6335831  0.00    0.0017620   -0.0028388    0.0051416
 C   10.3169930   11.3269515    5.9919868  0.00    0.0001309    0.0033544    0.0029133
 H    8.6394173    9.1454924    3.8548604  0.00    0.0060735    0.0031921   -0.0050304
 H    9.9312805   10.3201450    3.4446161  0.00   -0.0191917   -0.0067856   -0.0003088
 H    8.3538983   10.8968618    4.0646997  0.00    0.0069246    0.0081870   -0.0008554
 H   10.7040776   11.2733825    7.0236461  0.00   -0.0098440   -0.0101620    0.0188404
 H    9.6258504   12.1837481    5.9270655  0.00   -0.0229879   -0.0035487   -0.0068094
 H   11.1679554   11.5392434    5.3236312  0.00    0.0176245    0.0107125   -0.0076491
 H   11.1423867    8.7994673    6.6498885  0.00   -0.0124319    0.0016013    0.0095502
 H   10.2695370    7.9171204    5.3721385  0.00   -0.0051486    0.0057075   -0.0002475
 H   11.5498500    9.0956336    4.9332150  0.00    0.0054847   -0.0004349   -0.0069744
 C    5.5435837   10.9580019    7.8564374  0.00    0.0080047    0.0018941    0.0045154
 C    6.1034349   12.0620448    8.7693821  0.00    0.0092108   -0.0024384   -0.0037097
 C    4.4945709   10.1522557    8.6285309  0.00   -0.0037138   -0.0044126   -0.0006221
 C    4.8838097   11.5818625    6.6169898  0.00   -0.0002913    0.0004827   -0.0051898
 H    6.5850084   11.6178364    9.6576445  0.00   -0.0059277    0.0049291    0.0018325
 H    5.2843629   12.7225995    9.1059127  0.00    0.0188768   -0.0045484    0.0043850
 H    6.8538427   12.6800939    8.2462187  0.00   -0.0059450    0.0059327   -0.0055519
 H    4.4900473   10.7992496    5.9465138  0.00    0.0099861   -0.0206600   -0.0059307
 H    5.5715678   12.2190103    6.0364958  0.00    0.0230046    0.0025722    0.0073486
 H    4.0365805   12.2133215    6.9321419  0.00   -0.0172629    0.0122227   -0.0023373
 H    4.0684247    9.3586045    7.9914887  0.00    0.0123138   -0.0063174   -0.0080803
 H    4.9556461    9.6668564    9.5049821  0.00    0.0047994    0.0042702   -0.0033951
 H    3.6702853   10.8007360    8.9727472  0.00   -0.0043407    0.0041836    0.0040485
30
 Energy =    -462.9057577315
 N    6.6205516   10.0329244    7.5229972  0.00   -0.0028772    0.0018047    0.0010253
 N    8.5878692    9.5900727    6.4750226  0.00   -0.0084803    0.0070788    0.0025239
 C    7.6035809   10.4300467    6.7367691  0.00    0.0096629    0.0107590   -0.0104976
 H    7.6035928   11.4552079    6.3021962  0.00   -0.0003679   -0.0192284    0.0086871
 C    9.6656943    9.9975972    5.5824618  0.00   -0.0202397   -0.0073040    0.0006957
 C    9.1102442   10.0985616    4.1516475  0.00   -0.0130949    0.0027643    0.0001267
 C   10.7201258    8.8882723    5.6345054  0.00    0.0040497    0.0039016    0.0016847
 C   10.3147068   11.3284193    5.9934888  0.00   -0.0026147   -0.0072407   -0.0028848
 H    8.6365891    9.1464082    3.8550455  0.00    0.0098083    0.0049322   -0.0022973
 H    9.9296860   10.3197512    3.4445400  0.00   -0.0167182   -0.0073816   -0.0007646
 H    8.3533494   10.8979139    4.0638566  0.00    0.0070731    0.0079076    0.0019534
 H   10.6991205   11.2732042    7.0262805  0.00   -0.0061649   -0.0059657    0.0132311
 H    9.6232858   12.1854474    5.9275341  0.00   -0.0176224   -0.0093906   -0.0071848
 H   11.1661439   11.5383678    5.3246823  0.00    0.0174482    0.0164897   -0.0002416
 H   11.1379118    8.8008264    6.6519745  0.00   -0.0093006   -0.0027371    0.0057451
 H   10.2658938    7.9174309    5.3725514  0.00    0.0007911    0.0123536    0.0019362
 H   11.5480007    9.0967209    4.9346617  0.00    0.0068351   -0.0060962   -0.0045181
 C    5.5444923   10.9584606    7.8557681  0.00    0.0232034   -0.0073977    0.0033008
 C    6.1048356   12.0619970    8.7688724  0.00    0.0123282    0.0017831   -0.0014957
 C    4.4966958   10.1516928    8.6279058  0.00   -0.0047993   -0.0001823   -0.0034899
 C    4.8861086   11.5817348    6.6148955  0.00    0.0010117   -0.0024895    0.0065431
 H    6.5877617   11.6182798    9.6569547  0.00   -0.0097400    0.0043402   -0.0017234
 H    5.2860348   12.7223912    9.1061245  0.00    0.0168568   -0.0043939    0.0054132
 H    6.8545684   12.6812948    8.2460742  0.00   -0.0061319    0.0037416   -0.0072660
 H    4.4951151   10.7971306    5.9447448  0.00    0.0064762   -0.0133257   -0.0046465
 H    5.5741024   12.2198641    6.0349988  0.00    0.0177976   -0.0011300    0.0119174
 H    4.0383189   12.2118027    6.9320674  0.00   -0.0170132    0.0108682   -0.0120639
 H    4.0729128    9.3579634    7.9891112  0.00    0.0095733   -0.0056549   -0.0017245
 H    4.9591322    9.6669260    9.5046185  0.00   -0.0015492    0.0078267   -0.0103399
 H    3.6720499   10.8005031    8.9707464  0.00   -0.0066303   -0.0007678    0.0070131
30
 Energy =    -462.9057859986
 N    6.6206741   10.0321888    7.5234451  0.00    0.0090008   -0.0015046   -0.0013929
 N    8.5873292    9.5894559    6.4753125  0.00    0.0035067   -0.0068355   -0.0029055
 C    7.6038865   10.4287349    6.7371743  0.00   -0.0096072    0.0140310    0.0002547
 H    7.6036390   11.4531806    6.3032072  0.00    0.0001341   -0.0061676    0.0028017
 C    9.6640965    9.9980597    5.5825898  0.00   -0.0140320   -0.0048757    0.0033232
 C    9.1085102   10.0990680    4.1520476  0.00   -0.0119355    0.0010916   -0.0014668
 C   10.7183603    8.8885515    5.6353985  0.00    0.0023157    0.0095408   -0.0031352
 C   10.3126412   11.3295400    5.9947425  0.00   -0.0013108   -0.0132594   -0.0079330
 H    8.6345423    9.1473468    3.8550022  0.00    0.0071758    0.0034992   -0.0004426
 H    9.9273314   10.3189936    3.4444457  0.00   -0.0094691   -0.0055134   -0.0031328