77
 Energy =   -1272.7933691160
 Y    7.5514802    7.4563596    7.8919972  0.00   -0.0876131    0.3400050    1.4866116
 N    6.4320822    8.2618532    9.9753994  0.00    1.3711503    0.1861181    2.0045483
 N    8.7321010    8.3401553    9.9236441  0.00   -1.2823710    0.3663927    0.2494037
 N    6.3019817    9.0098894    7.2068577  0.00   -1.3144254    1.3800735   -0.7024437
 N    8.3991822    9.0189266    6.8872340  0.00    1.0796513    1.4090055   -1.5472227
 C    7.5901108    8.8235084   10.8383991  0.00   -3.0363971   -8.5626104  -17.6866597
 C    7.2463192    9.8544617    6.3637842  0.00    0.8305256   -2.9418261    1.8905541
 H    7.3697607   10.7912012    5.8002267  0.00   -0.4262152   -0.1426030    0.2374379
 H    7.7232026    9.1424123   11.5432245  0.00    1.2977819    6.0407097   12.1649963
 C    2.9218493    7.8713379   12.4459595  0.00   -0.2742337   -0.1837846    0.1279639
 C    4.1788421    7.0672992   12.8282100  0.00    0.0402954    0.0808807    0.2894218
 C    5.3952082    7.6642731   12.0958516  0.00   -0.0373276   -0.3807648    0.2392164
 C    5.1965912    7.6303000   10.5687276  0.00    0.7332662    0.9743936    0.4447608
 C    3.9336235    8.4320543   10.2029078  0.00    0.0992533   -1.0792465    0.5017908
 C    2.7113363    7.8197426   10.9184501  0.00   -0.1950955    0.2080938    0.0200631
 H    3.0571399    8.9553502   12.7694215  0.00   -0.1267376   -0.4729903   -0.0922119
 H    2.0151384    7.4290693   12.9764685  0.00    0.3751399    0.2916709   -0.1881288
 H    4.3443016    7.1303903   13.9541856  0.00   -0.0834489   -0.1464017   -0.4874748
 H    4.0436967    5.9772688   12.5247357  0.00    0.0646123    0.4513836    0.2045564
 H    6.3350928    7.0790534   12.3680944  0.00   -0.3990247    0.3039075   -0.0976746
 H    5.5253773    8.7496144   12.4171723  0.00   -0.0259169   -0.4812019   -0.1450677
 H    5.0869537    6.5551429   10.2067583  0.00    0.1223294    0.3918276    0.0955562
 H    3.7775031    8.4093084    9.0741067  0.00    0.1466401   -0.2940003    1.3680596
 H    4.0638034    9.5120111   10.5417698  0.00    0.3768669   -0.9535519    0.2414412
 H    2.5732896    6.7382511   10.5880881  0.00   -0.0131142    0.4776602    0.1073657
 H    1.7797778    8.4182558   10.6471237  0.00    0.3608067   -0.3615734    0.0678348
 C   11.7489879    8.3549809   12.8213225  0.00    0.0815323   -0.1158177    0.0753270
 C   12.2524191    7.9005987   11.4332027  0.00    0.1949804    0.0685156    0.0492138
 C   11.3188090    8.4200567   10.3186974  0.00    0.3155081   -0.4532948    0.3795919
 C    9.9297271    7.7931935   10.6247766  0.00   -1.4788981    1.4457949    0.2443476
 C    9.2892177    8.2228713   11.9755979  0.00    6.4915079    1.1500292    0.9235580
 C   10.3118726    7.8218039   13.0647170  0.00   -0.2063584   -0.0425778    0.6931330
 H   11.7888858    9.4902771   12.8961213  0.00   -0.0166231   -0.4717928   -0.0008034
 H   12.4321443    7.9092352   13.6163898  0.00   -0.2967509    0.3094646   -0.2902300
 H   13.3252845    8.2480790   11.2691082  0.00   -0.4648245   -0.2152363    0.0487136
 H   12.2201275    6.7631107   11.4030955  0.00    0.1542231    0.4452357    0.0136358
 H   11.6948708    8.0468126    9.3083050  0.00   -0.1064418    0.2142706    0.9010200
 H   11.2998219    9.5599126   10.3105081  0.00   -0.0368026   -0.5902590    0.0875001
 H   10.0193708    6.6611134   10.5436630  0.00   -0.1338424    0.4001569   -0.0164987
 H    8.4182036    7.8737069   12.0573947  0.00   -3.2467956   -2.0710738    0.8570624
 H    9.1825548    9.3540759   11.9978162  0.00    0.5176544   -0.5445921    0.0771690
 H   10.3890746    6.6858392   13.0882768  0.00   -0.1050434    0.4535774    0.0936794
 H    9.9495983    8.1866764   14.0816342  0.00    0.1961507   -0.2703625   -0.3301442
 C   12.1966078   11.0774781    7.1324007  0.00    0.2816134    0.0864039   -0.1278202
 C   12.2282717    9.5460577    7.3165558  0.00    0.1572844   -0.0525955    0.1710673
 C   10.8328016    9.0449252    7.7423307  0.00   -0.2889040    0.0329231   -0.4861739
 C    9.8368426    9.3904809    6.6206766  0.00   -1.0577218    0.3417437   -0.2385683
 C    9.7817667   10.9229453    6.4476972  0.00    0.3324488    0.1984747   -0.3297153
 C   11.1692336   11.4562413    6.0474701  0.00   -0.0175652    0.3072595    0.0118688
 H   13.2288230   11.4455307    6.8193967  0.00   -0.4395239   -0.1130709    0.2367007
 H   11.9052675   11.5665811    8.1185926  0.00    0.1847871   -0.1652866   -0.4146297
 H   12.5275695    9.0506400    6.3357170  0.00   -0.0527816    0.1870826    0.4532184
 H   12.9869751    9.2765012    8.1214852  0.00   -0.2514784    0.0709002   -0.4122884
 H   10.5137321    9.5504999    8.7114330  0.00   -0.0015195   -0.3157229   -0.7671288
 H   10.8752348    7.9199323    7.9027957  0.00   -0.1571968    0.4662355   -0.1582382
 H    9.4507326   11.3959290    7.4296398  0.00    0.0777772   -0.2264562   -0.4591305
 H    9.0302127   11.1899341    5.6341032  0.00    0.4726639   -0.0727926    0.4275646
 H   11.1260682   12.5892413    5.9315944  0.00    0.0727708   -0.5008669   -0.0390552
 H   11.4766579   10.9882765    5.0560175  0.00   -0.1105937    0.2750288    0.3891825
 H   10.1719395    8.9087268    5.6438905  0.00   -0.0081358    0.2223607    0.3302696
 C    3.3975195   11.8585758    8.6597784  0.00   -0.2223197    0.1967797    0.1643302
 C    2.9881361   10.3724684    8.7342765  0.00   -0.6839665    0.4839149   -0.2958359
 C    3.8057873    9.5517862    7.7145553  0.00    0.0169222    0.2491974   -0.4625867
 C    5.2933391    9.7190672    8.0819142  0.00    0.6249684    0.3784444   -0.9733736
 C    5.7185594   11.2007222    8.0145208  0.00   -0.0265535    0.1967853    0.4142946
 C    4.8872618   12.0245377    9.0115439  0.00    0.0157543    0.2496842   -0.1113831
 H    2.7742414   12.4612792    9.3992822  0.00    0.1887522   -0.2187346   -0.4120197
 H    3.2144787   12.2460893    7.6038323  0.00    0.0420210   -0.0681511    0.4796049
 H    3.1874411    9.9779676    9.7852371  0.00   -0.7122145    0.8655362   -1.1604211
 H    1.8770232   10.2731075    8.4995442  0.00    0.4445769    0.0479142    0.1316226
 H    3.6105833    9.9349520    6.6588584  0.00    0.0600087   -0.2402099    0.4130829
 H    3.5127253    8.4519772    7.7847107  0.00    0.0492570    0.5340889   -0.5823804
 H    5.5674013   11.5938184    6.9555243  0.00    0.0733504   -0.1132053    0.4886407
 H    6.8216233   11.2875400    8.2894024  0.00   -0.5142024   -0.0737891   -0.2001323
 H    5.1862126   13.1227184    8.9507746  0.00   -0.1322910   -0.4680782    0.1363569
 H    5.0728049   11.6389496   10.0678511  0.00   -0.0373237    0.2527813   -0.4290200
 H    5.4300107    9.3541756    9.1527036  0.00    0.1675816    0.3719792   -0.7849559
77
 Energy =   -1272.9195581320
 Y    7.5512184    7.4573751    7.8964367  0.00   -0.0735746    0.3784621    1.4175008
 N    6.4361770    8.2624090    9.9813858  0.00    1.3045689    0.0729951    1.7437928
 N    8.7282710    8.3412495    9.9243888  0.00   -1.2177293    0.2432032    0.0433709
 N    6.2980560    9.0140110    7.2047597  0.00   -1.2196162    1.2920875   -0.7026174
 N    8.4024064    9.0231346    6.8826131  0.00    0.9779952    1.2743905   -1.4559076
 C    7.5810425    8.7979363   10.7855781  0.00   -1.7221165   -5.4058838  -10.5643308
 C    7.2487994    9.8456761    6.3694302  0.00    0.8187226   -2.7232893    1.7668554
 H    7.3684876   10.7907755    5.8009357  0.00   -0.4350516   -0.2621051    0.3172700
 H    7.7270783    9.1604527   11.5795548  0.00    0.0633901    3.1081942    5.6237525
 C    2.9210302    7.8707890   12.4463415  0.00   -0.2445662   -0.1737698    0.1120820
 C    4.1789623    7.0675407   12.8290742  0.00    0.0279391    0.0791074    0.2521007
 C    5.3950966    7.6631358   12.0965659  0.00   -0.0469060   -0.3442834    0.2406520
 C    5.1987810    7.6332099   10.5700557  0.00    0.7153981    0.9058358    0.4468656
 C    3.9339198    8.4288312   10.2044063  0.00    0.1180758   -0.9980428    0.4991904
 C    2.7107536    7.8203640   10.9185099  0.00   -0.1651239    0.1721796    0.0430134
 H    3.0567613    8.9539375   12.7691460  0.00   -0.1263560   -0.4601201   -0.0875402
 H    2.0162587    7.4299403   12.9759065  0.00    0.3503793    0.2774275   -0.1738539
 H    4.3440522    7.1299530   13.9527296  0.00   -0.0786527   -0.1426864   -0.4584958
 H    4.0438895    5.9786168   12.5253464  0.00    0.0621467    0.4365969    0.2022893
 H    6.3339010    7.0799610   12.3678025  0.00   -0.3773534    0.2873282   -0.0864411
 H    5.5252997    8.7481773   12.4167389  0.00   -0.0229099   -0.4750726   -0.1337226
 H    5.0873189    6.5563130   10.2070435  0.00    0.1366532    0.4161259    0.0996096
 H    3.7779409    8.4084304    9.0781922  0.00    0.1438532   -0.2938684    1.3220625
 H    4.0649287    9.5091633   10.5424908  0.00    0.3595171   -0.9438998    0.2301401
 H    2.5732503    6.7396776   10.5884086  0.00   -0.0185899    0.4640215    0.1050399
 H    1.7808552    8.4171760   10.6473262  0.00    0.3433775   -0.3425057    0.0589298
 C   11.7492313    8.3546349   12.8215473  0.00    0.0843994   -0.1255620    0.0912797
 C   12.2530012    7.9008032   11.4333494  0.00    0.1564031    0.0564573    0.0636225
 C   11.3197511    8.4187030   10.3198308  0.00    0.2600224   -0.4125657    0.3553369
 C    9.9253103    7.7975113   10.6255062  0.00   -1.3518680    1.3721663    0.2199224
 C    9.3086043    8.2263058   11.9783559  0.00    5.1590449    0.6941775    0.9491727
 C   10.3112562    7.8216766   13.0667869  0.00   -0.0620660   -0.0344067    0.6624975
 H   11.7888360    9.4888680   12.8961187  0.00   -0.0176922   -0.4576275    0.0005968
 H   12.4312580    7.9101593   13.6155228  0.00   -0.2757415    0.3005575   -0.2746640
 H   13.3238961    8.2474361   11.2692535  0.00   -0.4418073   -0.2050121    0.0442814
 H   12.2205879    6.7644403   11.4031360  0.00    0.1548278    0.4286209    0.0145300
 H   11.6945528    8.0474525    9.3109957  0.00   -0.0974244    0.2015532    0.8703178
 H   11.2997119    9.5581498   10.3107693  0.00   -0.0287355   -0.5803229    0.0868821
 H   10.0189709    6.6623085   10.5436135  0.00   -0.1464004    0.4390148   -0.0096447
 H    8.4085070    7.8675216   12.0599541  0.00   -2.2503203   -1.6398983    0.7542662
 H    9.1841007    9.3524494   11.9980465  0.00    0.5325907   -0.4797946    0.0799228
 H   10.3887608    6.6871937   13.0885564  0.00   -0.1064314    0.4346188    0.0950710
 H    9.9501840    8.1858688   14.0806480  0.00    0.1770327   -0.2550471   -0.3000381
 C   12.1974487   11.0777362    7.1320188  0.00    0.2501281    0.0704856   -0.1242271
 C   12.2287413    9.5459007    7.3170665  0.00    0.1221409   -0.0340813    0.1481608
 C   10.8319386    9.0450235    7.7408786  0.00   -0.2860421    0.0365656   -0.4801081
 C    9.8336836    9.3915015    6.6199639  0.00   -0.9849266    0.3661271   -0.2579108
 C    9.7827594   10.9235381    6.4467124  0.00    0.3346353    0.1968558   -0.3134746
 C   11.1691810   11.4571590    6.0475054  0.00   -0.0052362    0.2760522    0.0200584
 H   13.2275102   11.4451931    6.8201035  0.00   -0.4111993   -0.1033812    0.2264513
 H   11.9058192   11.5660875    8.1173542  0.00    0.1825203   -0.1584708   -0.4020385
 H   12.5274117    9.0511987    6.3370704  0.00   -0.0472760    0.1794685    0.4388537
 H   12.9862239    9.2767130    8.1202538  0.00   -0.2376495    0.0636491   -0.3907774
 H   10.5137274    9.5495570    8.7091418  0.00   -0.0049702   -0.3057735   -0.7476275
 H   10.8747652    7.9213247    7.9023229  0.00   -0.1577983    0.4511989   -0.1582966
 H    9.4509647   11.3952527    7.4282685  0.00    0.0770482   -0.2194166   -0.4507531
 H    9.0316241   11.1897168    5.6353800  0.00    0.4548839   -0.0627228    0.4062169
 H   11.1262854   12.5877455    5.9314776  0.00    0.0716118   -0.4702440   -0.0406827
 H   11.4763275   10.9890980    5.0571796  0.00   -0.1062798    0.2706640    0.3758751
 H   10.1719150    8.9093910    5.6448767  0.00   -0.0080533    0.2181022    0.3163906
 C    3.3968554   11.8591635    8.6602691  0.00   -0.2018027    0.1828263    0.1486761
 C    2.9860933   10.3739136    8.7333929  0.00   -0.6182737    0.4682654   -0.3117123
 C    3.8058377    9.5525305    7.7131736  0.00    0.0181041    0.2511037   -0.4129603
 C    5.2952054    9.7201974    8.0790072  0.00    0.5795214    0.3848105   -0.9279385
 C    5.7184800   11.2013099    8.0157580  0.00   -0.0422579    0.2046042    0.3843906
 C    4.8873087   12.0252834    9.0112112  0.00   -0.0010945    0.2215641   -0.1055031
 H    2.7748049   12.4606260    9.3980517  0.00    0.1732649   -0.2005972   -0.3912352
 H    3.2146041   12.2458858    7.6052646  0.00    0.0382547   -0.0600112    0.4648332
 H    3.1853140    9.9805525    9.7817714  0.00   -0.6943118    0.8402299   -1.1162951
 H    1.8783508   10.2732507    8.4999372  0.00    0.4032879    0.0484568    0.1196054
 H    3.6107624    9.9342347    6.6600920  0.00    0.0554684   -0.2261511    0.3802277
 H    3.5128722    8.4535723    7.7829713  0.00    0.0502860    0.5237319   -0.5717717
 H    5.5676202   11.5934803    6.9569835  0.00    0.0741695   -0.1061729    0.4827618
 H    6.8200875   11.2873197    8.2888046  0.00   -0.4892046   -0.0680062   -0.1919008
 H    5.1858174   13.1213205    8.9511818  0.00   -0.1258986   -0.4414226    0.1329971
 H    5.0726933   11.6397046   10.0665698  0.00   -0.0366635    0.2496040   -0.4153550
 H    5.4305110    9.3552865    9.1503593  0.00    0.1575941    0.3726807   -0.7978016
77
 Energy =   -1273.0385595740
 Y    7.5504921    7.4620717    7.9121706  0.00   -0.0234753   -0.0326301    1.5509996
 N    6.4506312    8.2622651    9.9992111  0.00    0.8787083   -0.1190811    1.2245407
 N    8.7147998    8.3429794    9.9230940  0.00   -0.9011784    0.0965109   -0.1657895
 N    6.2848257    9.0281356    7.1966608  0.00   -0.7985765    1.3571886   -1.0092727
 N    8.4127914    9.0366491    6.8666295  0.00    0.4219819    1.3977930   -1.5145267
 C    7.5726418    8.7631284   10.7258583  0.00   -0.8944700   -3.5882502   -6.4488631
 C    7.2581314    9.8161950    6.3887150  0.00    0.8769022   -2.5363327    1.9997884
 H    7.3633963   10.7867143    5.8052873  0.00   -0.4283182   -0.5520822    0.4861790
 H    7.7170581    9.1707335   11.5873973  0.00   -0.4401418    1.6855553    2.5243320
 C    2.9184697    7.8688736   12.4474949  0.00   -0.1458043   -0.1433299    0.0609675
 C    4.1791764    7.0684369   12.8316544  0.00   -0.0136281    0.0727508    0.1392193
 C    5.3944722    7.6594858   12.0993517  0.00   -0.0684360   -0.2367484    0.2303958
 C    5.2068695    7.6430523   10.5752239  0.00    0.6425050    0.6220515    0.4306012
 C    3.9354440    8.4180366   10.2101366  0.00    0.1647254   -0.7378174    0.4908489
 C    2.7091112    7.8220357   10.9192056  0.00   -0.0751760    0.0665235    0.1116374
 H    3.0553082    8.9487470   12.7681779  0.00   -0.1246721   -0.4103920   -0.0699403
 H    2.0200806    7.4330135   12.9740273  0.00    0.2654710    0.2287471   -0.1266609
 H    4.3431873    7.1283408   13.9476979  0.00   -0.0636139   -0.1287050   -0.3610729
 H    4.0445838    5.9835196   12.5276578  0.00    0.0554252    0.3854334    0.1922742
 H    6.3297406    7.0831278   12.3669040  0.00   -0.3084486    0.2312596   -0.0560303
 H    5.5250616    8.7427556   12.4152966  0.00   -0.0137796   -0.4354068   -0.0930487
 H    5.0890180    6.5613204   10.2082266  0.00    0.1848653    0.4817997    0.1133571
 H    3.7795740    8.4050451    9.0930278  0.00    0.1318631   -0.3000985    1.1709124
 H    4.0689205    9.4983695   10.5450447  0.00    0.3030724   -0.8860878    0.2024668
 H    2.5729879    6.7449066   10.5895989  0.00   -0.0331961    0.4137112    0.0950051
 H    1.7846603    8.4133950   10.6479279  0.00    0.2823065   -0.2788897    0.0316026
 C   11.7502286    8.3531026   12.8227378  0.00    0.0850878   -0.1346486    0.1064014
 C   12.2544673    7.9013486   11.4342077  0.00    0.0458190    0.0219886    0.1061670
 C   11.3222641    8.4143029   10.3237144  0.00    0.0956196   -0.2814808    0.3110031
 C    9.9108365    7.8126835   10.6278276  0.00   -0.9668127    1.0553139    0.1322667
 C    9.3564549    8.2303356   11.9895175  0.00    2.6083556    0.1045023    0.8001049
 C   10.3117973    7.8213510   13.0741547  0.00    0.3026837   -0.0604795    0.5965008
 H   11.7886226    9.4837171   12.8961375  0.00   -0.0194002   -0.4069430    0.0063539
 H   12.4282629    7.9135451   13.6124926  0.00   -0.2020754    0.2639549   -0.2147225
 H   13.3190046    8.2451622   11.2697248  0.00   -0.3639730   -0.1704985    0.0318350
 H   12.2223771    6.7692350   11.4033107  0.00    0.1546317    0.3709169    0.0158711
 H   11.6935081    8.0496645    9.3207579  0.00   -0.0670169    0.1488566    0.7626560
 H   11.2994506    9.5515482   10.3117649  0.00   -0.0030616   -0.5312315    0.0865011
 H   10.0171739    6.6677062   10.5435617  0.00   -0.1969893    0.5590267   -0.0031361
 H    8.3912512    7.8523775   12.0677511  0.00   -0.6220548   -0.9185734    0.5988168
 H    9.1903683    9.3474841   11.9989914  0.00    0.5435985   -0.3741131    0.1061469
 H   10.3875217    6.6920371   13.0896637  0.00   -0.0987460    0.3661461    0.1078600
 H    9.9520575    8.1830626   14.0774521  0.00    0.1253909   -0.2049367   -0.1943030
 C   12.2000566   11.0784099    7.1306182  0.00    0.1479271    0.0173159   -0.1045847
 C   12.2298423    9.5456691    7.3185741  0.00    0.0074483    0.0344901    0.0608551
 C   10.8286665    9.0454767    7.7353981  0.00   -0.2851063    0.0127542   -0.4299871
 C    9.8229662    9.3959335    6.6168229  0.00   -0.6233210    0.4501393   -0.4006969
 C    9.7866344   10.9257928    6.4432411  0.00    0.3259517    0.1865532   -0.2579022
 C   11.1692275   11.4600687    6.0478078  0.00    0.0406735    0.1781537    0.0391387
 H   13.2230176   11.4440860    6.8226237  0.00   -0.3211994   -0.0712357    0.1893553
 H   11.9079025   11.5643205    8.1128304  0.00    0.1742732   -0.1343543   -0.3581579
 H   12.5269142    9.0532007    6.3420025  0.00   -0.0275152    0.1516982    0.3887851
 H   12.9836050    9.2773832    8.1159372  0.00   -0.2054804    0.0389690   -0.3224127
 H   10.5136396    9.5461198    8.7006953  0.00   -0.0175930   -0.2677315   -0.6715659
 H   10.8729408    7.9263936    7.9004978  0.00   -0.1633523    0.4133939   -0.1650133
 H    9.4518459   11.3927855    7.4231467  0.00    0.0754875   -0.1923413   -0.4140587
 H    9.0367111   11.1890818    5.6398755  0.00    0.3942520   -0.0146476    0.3152905
 H   11.1271001   12.5825930    5.9309945  0.00    0.0637831   -0.3697330   -0.0448917
 H   11.4751396   10.9921794    5.0613953  0.00   -0.0922145    0.2546893    0.3281618
 H   10.1718223    8.9118676    5.6484018  0.00   -0.0343118    0.1931378    0.2873353
 C    3.3947080   11.8611492    8.6618465  0.00   -0.1364540    0.1324484    0.0884471
 C    2.9795397   10.3791741    8.7296625  0.00   -0.4039486    0.4219078   -0.3578706
 C    3.8060561    9.5554412    7.7088468  0.00    0.0183938    0.2421623   -0.2666701
 C    5.3014878    9.7246878    8.0687089  0.00    0.2987924    0.4687398   -0.8383340
 C    5.7178558   11.2037362    8.0199276  0.00   -0.0920654    0.2182333    0.2786212
 C    4.8871490   12.0275921    9.0100467  0.00   -0.0505526    0.1425688   -0.0813297
 H    2.7766665   12.4584724    9.3937242  0.00    0.1256361   -0.1409350   -0.3202767
 H    3.2150117   12.2452654    7.6104932  0.00    0.0243251   -0.0277890    0.4087972
 H    3.1774679    9.9900156    9.7692911  0.00   -0.6261924    0.7415045   -0.9558534
 H    1.8826384   10.2738141    8.5012112  0.00    0.2707027    0.0479400    0.0732340
 H    3.6113615    9.9317512    6.6641880  0.00    0.0394259   -0.1716936    0.2641702
 H    3.5134601    8.4595182    7.7764744  0.00    0.0553879    0.4954830   -0.5323774
 H    5.5684816   11.5923183    6.9624960  0.00    0.0643998   -0.0717628    0.4413479
 H    6.8146670   11.2865865    8.2866648  0.00   -0.3937285   -0.0427713   -0.1468670
 H    5.1844218   13.1164657    8.9526855  0.00   -0.1030148   -0.3544512    0.1195733
 H    5.0722762   11.6425535   10.0619022  0.00   -0.0294951    0.2337815   -0.3722613
 H    5.4322398    9.3595877    9.1410531  0.00    0.1852713    0.3222591   -0.8058691
77
 Energy =   -1273.1413195970
 Y    7.5505027    7.4579753    7.9435195  0.00   -0.0102418   -0.3799635    1.4395590
 N    6.4639648    8.2579501   10.0179681  0.00    0.1048928   -0.4627819    0.4206993
 N    8.7000703    8.3432522    9.9174536  0.00   -0.3926803   -0.0889105   -0.5148497
 N    6.2730952    9.0550489    7.1742266  0.00   -0.2980111    1.1033908   -1.0673793
 N    8.4159479    9.0647325    6.8367021  0.00   -0.0108147    1.0815751   -1.2395355
 C    7.5659652    8.7174036   10.6550896  0.00   -0.1886329   -1.7594639   -2.7921011
 C    7.2757804    9.7687409    6.4295705  0.00    0.7567541   -1.6895963    1.9418396
 H    7.3550362   10.7730545    5.8165025  0.00   -0.4111423   -0.9379843    0.5897955
 H    7.7006238    9.1832290   11.5917129  0.00   -0.6797987    0.6058788    0.3631667
 C    2.9165537    7.8663569   12.4482030  0.00   -0.0655292   -0.1217336    0.0238316
 C    4.1785148    7.0697998   12.8332976  0.00   -0.0428608    0.0733467    0.0481595
 C    5.3929183    7.6558802   12.1037795  0.00   -0.0611082   -0.1453239    0.2030668
 C    5.2187740    7.6525860   10.5835239  0.00    0.4932774    0.3418635    0.3981672
 C    3.9391279    8.4060677   10.2196748  0.00    0.2026297   -0.5064443    0.4661159
 C    2.7085019    7.8223238   10.9220536  0.00    0.0153855   -0.0006378    0.1623932
 H    3.0528833    8.9411728   12.7669763  0.00   -0.1156233   -0.3351464   -0.0480484
 H    2.0244768    7.4370321   12.9719966  0.00    0.1720960    0.1706480   -0.0726101
 H    4.3420864    7.1259469   13.9415492  0.00   -0.0491994   -0.1100590   -0.2556312
 H    4.0456040    5.9905839   12.5313292  0.00    0.0432239    0.3034085    0.1679657
 H    6.3243561    7.0871225   12.3660988  0.00   -0.2243299    0.1643925   -0.0097317
 H    5.5248808    8.7345838   12.4138587  0.00   -0.0002465   -0.3575911   -0.0362235
 H    5.0930960    6.5713981   10.2105757  0.00    0.2296959    0.4932091    0.1181553
 H    3.7820440    8.3991156    9.1145295  0.00    0.1186253   -0.2996512    0.9567720
 H    4.0743206    9.4815394   10.5487425  0.00    0.2396132   -0.7506980    0.1865678
 H    2.5721939    6.7525396   10.5913667  0.00   -0.0473898    0.3227957    0.0786946
 H    1.7896124    8.4085391   10.6482883  0.00    0.2269821   -0.2122882    0.0081067
 C   11.7519112    8.3503504   12.8249926  0.00    0.0829218   -0.1139698    0.0786864
 C   12.2542980    7.9014401   11.4366905  0.00   -0.0466773    0.0122132    0.1328227
 C   11.3225557    8.4100350   10.3293501  0.00   -0.0671553   -0.1631754    0.2947274
 C    9.8955897    7.8304007   10.6295856  0.00   -0.6512226    0.7018758    0.1161796
 C    9.3817095    8.2259899   12.0039673  0.00    1.6894727    0.1363176    0.5300621
 C   10.3212959    7.8199552   13.0851780  0.00    0.3753189   -0.0717172    0.4289756
 H   11.7882272    9.4762154   12.8963120  0.00   -0.0188283   -0.3370717    0.0138429
 H   12.4250036    7.9183640   13.6088426  0.00   -0.0991588    0.2099636   -0.1269708
 H   13.3126135    8.2421427   11.2702212  0.00   -0.2869356   -0.1311520    0.0187784
 H   12.2254056    6.7759484   11.4036276  0.00    0.1461420    0.2792618    0.0179742
 H   11.6924824    8.0520851    9.3346739  0.00   -0.0396830    0.0844101    0.6210048
 H   11.2996363    9.5415901   10.3134512  0.00    0.0195421   -0.4320471    0.0869617
 H   10.0128389    6.6798046   10.5435694  0.00   -0.2392504    0.6171818   -0.0165944
 H    8.3959721    7.8418381   12.0778441  0.00   -0.2621140   -0.6995412    0.5651756
 H    9.2011571    9.3412474   12.0013044  0.00    0.4851876   -0.3390561    0.1445389
 H   10.3856505    6.6985559   13.0918850  0.00   -0.0606866    0.2465360    0.1352636
 H    9.9540152    8.1795164   14.0746426  0.00    0.0981618   -0.1559941   -0.0663097
 C   12.2019790   11.0782432    7.1287479  0.00    0.0598110   -0.0223546   -0.0909628
 C   12.2288929    9.5469910    7.3189409  0.00   -0.0965869    0.0760267    0.0024863
 C   10.8230947    9.0455301    7.7274222  0.00   -0.2794284    0.0249110   -0.3946326
 C    9.8140919    9.4055518    6.6076776  0.00   -0.2561880    0.4983761   -0.4909709
 C    9.7929492   10.9293566    6.4387159  0.00    0.2992198    0.1941809   -0.2128175
 C   11.1704553   11.4626248    6.0487626  0.00    0.0829795    0.1050273    0.0588751
 H   13.2175835   11.4429958    6.8259809  0.00   -0.2204073   -0.0401689    0.1465597
 H   11.9112390   11.5619151    8.1062286  0.00    0.1546265   -0.1011674   -0.2913660
 H   12.5265586    9.0559113    6.3491398  0.00   -0.0051181    0.1145779    0.3102188
 H   12.9798953    9.2779101    8.1102687  0.00   -0.1825790    0.0172268   -0.2534940
 H   10.5131748    9.5412312    8.6882500  0.00   -0.0411849   -0.2075329   -0.5665726
 H   10.8696876    7.9341224    7.8972011  0.00   -0.1741920    0.3322148   -0.1754410
 H    9.4533086   11.3892733    7.4153774  0.00    0.0746901   -0.1509381   -0.3538770
 H    9.0438571   11.1892446    5.6452052  0.00    0.3130897    0.0458949    0.2051394
 H   11.1282776   12.5763093    5.9300753  0.00    0.0587947   -0.2532860   -0.0465318
 H   11.4734641   10.9970219    5.0673721  0.00   -0.0671531    0.2224050    0.2542249
 H   10.1709183    8.9154266    5.6537371  0.00   -0.0588378    0.1687708    0.2215937
 C    3.3926597   11.8632726    8.6630199  0.00   -0.0716995    0.0950115    0.0341174
 C    2.9736682   10.3869988    8.7222115  0.00   -0.2088053    0.3555401   -0.3800760
 C    3.8064204    9.5601189    7.7050331  0.00    0.0137414    0.2397039   -0.1687342
 C    5.3047777    9.7346211    8.0531909  0.00    0.0734629    0.4901018   -0.6949973
 C    5.7155758   11.2081554    8.0243890  0.00   -0.1234111    0.2389920    0.1701159
 C    4.8856837   12.0296242    9.0086854  0.00   -0.0956262    0.0770199   -0.0639708
 H    2.7786734   12.4562834    9.3881315  0.00    0.0698686   -0.0757967   -0.2372319
 H    3.2153571   12.2450295    7.6179824  0.00    0.0085707    0.0189169    0.3200540
 H    3.1658410   10.0036187    9.7520839  0.00   -0.5298078    0.6105351   -0.7445695
 H    1.8866758   10.2747563    8.5022160  0.00    0.1365024    0.0503232    0.0132536
 H    3.6119796    9.9289065    6.6682687  0.00    0.0171720   -0.1086716    0.1361793
 H    3.5145897    8.4689572    7.7664174  0.00    0.0651959    0.4415553   -0.4671878
 H    5.5696599   11.5912358    6.9707717  0.00    0.0521637   -0.0117909    0.3604192
 H    6.8078513   11.2859860    8.2842043  0.00   -0.2956347   -0.0102271   -0.0937602
 H    5.1826220   13.1103530    8.9549095  0.00   -0.0791088   -0.2516490    0.1032010
 H    5.0717642   11.6469887   10.0550261  0.00   -0.0221342    0.2023695   -0.2988119
 H    5.4360811    9.3654680    9.1251605  0.00    0.1984495    0.2689860   -0.8199300
77
 Energy =   -1273.2040242960
 Y    7.5503896    7.4452587    7.9805230  0.00   -0.0421357   -0.0222389    0.9825954
 N    6.4612940    8.2435828   10.0233058  0.00   -0.1343912   -0.5972038   -0.0485404
 N    8.6934575    8.3396508    9.9017381  0.00   -0.0493704   -0.2038015   -0.5597782
 N    6.2690469    9.0823481    7.1456164  0.00   -0.3655442    0.3221553   -0.4962090
 N    8.4121595    9.0912148    6.8060027  0.00    0.5848154   -0.0891378   -0.4175072
 C    7.5658042    8.6835942   10.6065700  0.00   -0.0009143   -0.8102333   -1.0265981
 C    7.2948177    9.7301616    6.4801629  0.00    0.1739206   -0.2018620    0.7985922
 H    7.3444730   10.7459214    5.8326887  0.00   -0.3662767   -1.0549375    0.6975750
 H    7.6815526    9.1921341   11.5875302  0.00   -0.6560767    0.1253110   -0.4621475
 C    2.9154862    7.8633693   12.4485217  0.00   -0.0195669   -0.1027203    0.0095903
 C    4.1771618    7.0716996   12.8338297  0.00   -0.0510523    0.0719929    0.0035258
 C    5.3913461    7.6528156   12.1088707  0.00   -0.0441623   -0.0894024    0.1743343
 C    5.2305713    7.6593309   10.5936437  0.00    0.2767793    0.1212371    0.3408681
 C    3.9446898    8.3946994   10.2316253  0.00    0.1802006   -0.3487142    0.4354069
 C    2.7095843    7.8217465   10.9266834  0.00    0.0752690   -0.0300641    0.1793684
 H    3.0499376    8.9329971   12.7658888  0.00   -0.1024034   -0.2566172   -0.0275448
 H    2.0282545    7.4410408   12.9705097  0.00    0.0904978    0.1143791   -0.0220046
 H    4.3409186    7.1232202   13.9356924  0.00   -0.0393161   -0.0911182   -0.1621255
 H    4.0466428    5.9978920   12.5355296  0.00    0.0289055    0.2139997    0.1365165
 H    6.3191404    7.0909025   12.3661703  0.00   -0.1387311    0.0990794    0.0414592
 H    5.5249712    8.7258276   12.4133245  0.00    0.0127956   -0.2654792    0.0160855
 H    5.0994086    6.5843782   10.2136947  0.00    0.2275547    0.4259181    0.1351966
 H    3.7850270    8.3913220    9.1378652  0.00    0.1120935   -0.2821730    0.7253331
 H    4.0800780    9.4629486   10.5534565  0.00    0.1912082   -0.5836657    0.1772346
 H    2.5708541    6.7602995   10.5932971  0.00   -0.0579169    0.2195427    0.0643115
 H    1.7950830    8.4035240   10.6483174  0.00    0.1885418   -0.1548697   -0.0054467
 C   11.7540529    8.3475025   12.8268785  0.00    0.1059401   -0.1114586    0.0942640
 C   12.2523620    7.9016448   11.4403623  0.00   -0.1053031    0.0122948    0.1359758
 C   11.3195797    8.4067053   10.3368500  0.00   -0.1480029   -0.0992215    0.2445165
 C    9.8811487    7.8459997   10.6323742  0.00   -0.3027040    0.4579903    0.0347299
 C    9.4166865    8.2290667   12.0158204  0.00    0.4059659   -0.0907413    0.3158320
 C   10.3320022    7.8179692   13.0952109  0.00    0.4844412   -0.0511660    0.3332100
 H   11.7877409    9.4679532   12.8967234  0.00   -0.0189144   -0.2584578    0.0194365
 H   12.4231652    7.9234305   13.6061647  0.00    0.0011943    0.1606893   -0.0475176