76
Energy = -1268.363001169
Y     8.1424106    8.1060108    8.1398731 
N     6.6366134    6.9747218    9.6498711 
N     8.3039793    8.2662086   10.5088203 
N     6.7626010   10.0719461    7.7482119 
N     8.9461934   10.1185429    7.1242513 
N     8.8585268    5.3848540    5.8434305 
N     7.1079760    6.8629955    6.2708839 
C     7.6328055    5.8528927    5.6402267 
C     7.3121014    7.4141861   10.6927159 
C     7.7778981   10.7266289    7.2233099 
C     5.7637376    7.2445790    5.8667880 
C     5.7503181    8.3278369    4.7973040 
H     4.7138700    8.6102426    4.5387845 
H     6.2523600    7.9798136    3.8768795 
H     6.2750949    9.2283841    5.1582833 
C     9.4480549    4.2444204    5.1400489 
C    10.8357620    4.0380095    5.7492953 
C     9.5844133    4.5507718    3.6431054 
C     8.6053415    2.9802061    5.3489929 
H    11.3502845    3.1932899    5.2615583 
H    10.7595577    3.8219177    6.8290129 
H     9.0822211    2.1114168    4.8628055 
H     7.5948578    3.0888436    4.9174454 
H     8.4962055    2.7620024    6.4252265 
H     8.5980690    4.7118227    3.1730475 
H    10.0737567    3.7135774    3.1149402 
H    10.1883351    5.4616332    3.4903946 
C     9.0974135    8.7610467   11.6274510 
C     8.2212611    9.5605160   12.6031853 
C    10.1645610    9.6890507   11.0432758 
C     9.7914056    7.6096666   12.3708244 
H     7.7130504   10.3830830   12.0707844 
H     8.8261868    9.9922634   13.4207489 
H    10.4123639    7.0223444   11.6716806 
H     9.0577708    6.9232410   12.8295695 
H    10.4420288    7.9910048   13.1783898 
H    10.8188055    9.1342283   10.3472314 
H    10.7955739   10.1242216   11.8382957 
H     9.6932179   10.5130322   10.4788733 
C    10.0799731   10.6874157    6.4077186 
C    10.0055009   10.2616459    4.9326642 
C    11.3497287   10.1026694    7.0347713 
C    10.1460666   12.2183007    6.4928679 
H     9.9806512    9.1601658    4.8548992 
H    10.8732669   10.6339986    4.3576489 
H     9.0855792   10.6548997    4.4636854 
H    11.0873570   12.5826554    6.0453631 
H    10.1135477   12.5527948    7.5451093 
H     9.3192937   12.7076362    5.9490086 
H    11.2934886    9.0006195    7.0312380 
H    11.4498828   10.4365578    8.0827973 
H    12.2522722   10.4178874    6.4809687 
C     5.5169764   10.7467213    7.9812683 
C     5.2243298   10.9474183    9.4642222 
H     5.2233610    9.9761762    9.9890785 
H     4.2410212   11.4290633    9.6160066 
H     5.9988104   11.5806552    9.9320801 
C     5.5463176    6.0586675    9.8427462 
C     4.1775765    6.7285608    9.7615362 
H     3.3635137    5.9899643    9.8774860 
H     4.0464854    7.2360186    8.7897914 
H     4.0671561    7.4908818   10.5529997 
H     4.6896226   10.1585533    7.5346786 
H     5.6357936    5.5447162   10.8245442 
H     5.6028127    5.2638046    9.0744300 
H     5.2234886    7.6089651    6.7585946 
H     5.2014718    6.3589151    5.5043434 
H    11.4564735    4.9419232    5.6225691 
H     7.4448291    8.9234342   13.0630721 
H     7.0325555    5.3239903    4.8763498 
H     7.6328462   11.7742170    6.8772251 
H     7.0465507    7.0455475   11.7100142 
H     5.5038077   11.7334077    7.4682490 
O     9.8713078    6.8783573    7.7996660 
H     9.4201952    5.8883305    6.5868688 
H    10.7418450    6.7506943    8.1913539 
