49
 Energy =    -807.4214970656
 Y    7.7853159    7.9507492    7.7536226  0.00   -0.0133660    0.3497522    0.3777060
 N    6.6069267    6.8434055    9.5080469  0.00    0.0440007    0.0221247   -0.1244974
 N    8.6426346    7.7529131    9.9662380  0.00   -0.0472320   -0.0849163   -0.1646682
 N    6.6237568   10.0321679    7.7563744  0.00    0.0471869   -0.1907168   -0.0973193
 N    8.6862556    9.9457589    6.7914608  0.00   -0.0972477   -0.0897550    0.0260357
 C    7.5643257    7.1026415   10.3738163  0.00    0.0121209   -0.0104425    0.0092852
 C    7.5914440   10.6262807    7.0880626  0.00    0.0564130    0.0287476   -0.0441954
 C    9.6907439    8.1370509   10.9081293  0.00    0.0531739    0.0293379    0.0012521
 C    9.1463814    9.1295113   11.9460897  0.00   -0.0136052    0.0014309   -0.0073516
 C   10.7954951    8.8192539   10.0994323  0.00   -0.0072552    0.0042014    0.0035419
 C   10.2794330    6.9095661   11.6190991  0.00   -0.0086750   -0.0102622   -0.0149076
 H    8.7209794   10.0150781   11.4420212  0.00   -0.0006507    0.0024824    0.0023906
 H    9.9436174    9.4666497   12.6324644  0.00   -0.0018001   -0.0036552   -0.0061336
 H   10.6650228    6.1865627   10.8791809  0.00   -0.0008540   -0.0016517    0.0016288
 H    9.5237507    6.3937150   12.2373758  0.00    0.0015581   -0.0005044    0.0013399
 H   11.1100913    7.2002266   12.2862478  0.00   -0.0047279    0.0049232   -0.0040814
 H   11.2107141    8.1238239    9.3485767  0.00    0.0080790   -0.0049565   -0.0059367
 H   11.6199332    9.1526020   10.7538514  0.00   -0.0048101   -0.0035349   -0.0038890
 H   10.3953661    9.6992039    9.5651055  0.00    0.0025458    0.0019201   -0.0015827
 C    9.7451765   10.5485599    5.9847140  0.00    0.0560387    0.0092637   -0.0366112
 C    9.2271520   10.8967205    4.5812392  0.00   -0.0123420   -0.0093527    0.0058221
 C   10.8630935    9.5123392    5.8595092  0.00   -0.0061937    0.0034742    0.0133490
 C   10.3089399   11.8077239    6.6596220  0.00   -0.0129593   -0.0033481    0.0129302
 H    8.8133552    9.9970588    4.0926399  0.00    0.0051066    0.0003992   -0.0029662
 H   10.0361150   11.2992594    3.9454547  0.00   -0.0015049   -0.0048775    0.0070671
 H    8.4266070   11.6567571    4.6247037  0.00   -0.0002762    0.0036094   -0.0015327
 H   11.1493616   12.2257212    6.0772907  0.00   -0.0064943   -0.0064917    0.0007701
 H   10.6749375   11.5674510    7.6732551  0.00    0.0012321    0.0023488    0.0015850
 H    9.5440396   12.5988143    6.7523128  0.00    0.0016174    0.0042784    0.0001425
 H   10.4818211    8.5895259    5.3883720  0.00    0.0027735   -0.0143138   -0.0151357
 H   11.2577973    9.2487122    6.8565875  0.00    0.0084360   -0.0018493    0.0056487
 H   11.6980571    9.8985100    5.2485848  0.00   -0.0062936   -0.0068504    0.0008519
 C    5.4492684   10.7674035    8.1393191  0.00   -0.0565651   -0.0101613    0.0366025
 C    5.3849230   11.0319143    9.6393898  0.00    0.0085660   -0.0007822    0.0030851
 H    5.4244981   10.0817286   10.1997994  0.00   -0.0032030    0.0019505    0.0016995
 H    4.4519497   11.5577216    9.9117263  0.00    0.0044490   -0.0027792   -0.0051367
 H    6.2398118   11.6506472    9.9649080  0.00   -0.0006493   -0.0008311    0.0009510
 C    5.4445334    6.0958363    9.9008922  0.00   -0.0550867   -0.0353038    0.0104422
 C    4.1491857    6.8613864    9.6626191  0.00    0.0097816    0.0058055    0.0044940
 H    3.2701390    6.2470177    9.9274919  0.00    0.0082355    0.0019659   -0.0038257
 H    4.0595125    7.1480504    8.5995983  0.00   -0.0082299   -0.0033014   -0.0025221
 H    4.1217031    7.7863133   10.2644295  0.00   -0.0011977    0.0014396    0.0021140
 H    4.5484715   10.1986595    7.8378757  0.00    0.0064243    0.0052767   -0.0006852
 H    5.5123591    5.8087403   10.9724381  0.00    0.0067610    0.0077092   -0.0111214
 H    5.4039043    5.1469876    9.3299151  0.00    0.0093767    0.0091237    0.0043743
 H    8.3483002    8.6723020   12.5578387  0.00    0.0017397    0.0014763    0.0031639
 H    7.4649455   11.6873475    6.7753515  0.00    0.0079561   -0.0030133    0.0202653
 H    7.4511472    6.7707374   11.4303337  0.00   -0.0049861    0.0196472   -0.0064289
 H    5.4022717   11.7340317    7.5932585  0.00    0.0130232   -0.0183454   -0.0010316
49
 Energy =    -807.4224504295
 Y    7.7847494    7.9655549    7.7696154  0.00   -0.0129091    0.2685146    0.2929088
 N    6.6087894    6.8443416    9.5027798  0.00   -0.0292103   -0.0425396    0.0088355
 N    8.6406351    7.7493178    9.9592696  0.00    0.1079932   -0.0171604    0.0044177
 N    6.6257538   10.0240933    7.7522575  0.00   -0.0753742   -0.0012543   -0.0629354
 N    8.6821377    9.9419584    6.7925653  0.00    0.0858771    0.0047099   -0.0773744
 C    7.5648390    7.1021990   10.3742124  0.00   -0.0586570   -0.0369321   -0.0906793
 C    7.5938313   10.6274969    7.0861942  0.00   -0.0475956   -0.0573848    0.0126301
 C    9.6929953    8.1382926   10.9081846  0.00   -0.0401836   -0.0196466   -0.0543349
 C    9.1458061    9.1295717   11.9457807  0.00   -0.0025215   -0.0043989   -0.0125859
 C   10.7951880    8.8194314   10.0995841  0.00    0.0136251    0.0008971   -0.0157382
 C   10.2790663    6.9091314   11.6184703  0.00   -0.0000456    0.0081884   -0.0067299
 H    8.7209523   10.0151829   11.4421247  0.00   -0.0036294    0.0071246    0.0004459
 H    9.9435421    9.4664949   12.6322067  0.00   -0.0060625   -0.0040995   -0.0087917
 H   10.6649870    6.1864924   10.8792520  0.00    0.0012303   -0.0068074   -0.0044179
 H    9.5238175    6.3936935   12.2374351  0.00   -0.0014144    0.0003573   -0.0002838
 H   11.1098919    7.2004349   12.2860769  0.00   -0.0098319    0.0005395   -0.0083806
 H   11.2110559    8.1236136    9.3483272  0.00    0.0025953    0.0031556    0.0022963
 H   11.6197299    9.1524521   10.7536883  0.00   -0.0016411   -0.0003013   -0.0025446
 H   10.3954738    9.6992847    9.5650404  0.00    0.0023096    0.0042694   -0.0020622
 C    9.7475476   10.5489512    5.9831661  0.00   -0.0321092   -0.0316516    0.0251412
 C    9.2266279   10.8963235    4.5814877  0.00    0.0031900   -0.0003840   -0.0000190
 C   10.8628300    9.5124854    5.8600760  0.00    0.0072204   -0.0177951   -0.0058095
 C   10.3083903   11.8075813    6.6601710  0.00   -0.0026138   -0.0037018    0.0006180
 H    8.8135696    9.9970745    4.0925166  0.00    0.0017877   -0.0048913   -0.0036077
 H   10.0360494   11.2990517    3.9457556  0.00   -0.0065358   -0.0061022    0.0074983
 H    8.4265937   11.6569088    4.6246410  0.00   -0.0006082    0.0022128    0.0006217
 H   11.1490855   12.2254454    6.0773246  0.00   -0.0104602   -0.0066902    0.0059454
 H   10.6749890   11.5675497    7.6733238  0.00    0.0015910    0.0006990    0.0055495
 H    9.5441071   12.5989945    6.7523206  0.00   -0.0022456    0.0050874    0.0003717
 H   10.4819371    8.5889189    5.3877332  0.00    0.0061200   -0.0002018   -0.0044411
 H   11.2581535    9.2486331    6.8568283  0.00    0.0063413   -0.0017250    0.0055149
 H   11.6977893    9.8982190    5.2486223  0.00   -0.0047153   -0.0074477    0.0028196
 C    5.4468732   10.7669726    8.1408719  0.00    0.0661421   -0.0610712   -0.0148072
 C    5.3852855   11.0318807    9.6395236  0.00    0.0030564   -0.0061340    0.0066656
 H    5.4243626   10.0818107   10.1998747  0.00   -0.0031194    0.0006788    0.0051440
 H    4.4521380   11.5576034    9.9115123  0.00    0.0051148   -0.0021310   -0.0023436
 H    6.2397843   11.6506116    9.9649512  0.00    0.0036007    0.0018112    0.0012685
 C    5.4422014    6.0943413    9.9013382  0.00    0.0292077    0.0334637   -0.0341962
 C    4.1495998    6.8616316    9.6628135  0.00   -0.0090394   -0.0002439   -0.0023018
 H    3.2704877    6.2471005    9.9273345  0.00    0.0049747    0.0048616   -0.0029834
 H    4.0591637    7.1479100    8.5994957  0.00   -0.0048767   -0.0043053    0.0020564
 H    4.1216526    7.7863738   10.2645231  0.00    0.0005557    0.0033397    0.0042355
 H    4.5487429   10.1988822    7.8378503  0.00   -0.0192290   -0.0068402   -0.0025274
 H    5.5126457    5.8090663   10.9719712  0.00    0.0090668    0.0050693    0.0017153
 H    5.4043011    5.1473733    9.3301043  0.00    0.0022009   -0.0095982   -0.0036196
 H    8.3483747    8.6723644   12.5579752  0.00   -0.0006774   -0.0009012    0.0026417
 H    7.4652814   11.6872191    6.7762119  0.00    0.0109863    0.0174424    0.0158556
 H    7.4509366    6.7715689   11.4300647  0.00   -0.0039477    0.0200049    0.0018185
 H    5.4028223   11.7332543    7.5932179  0.00    0.0150407   -0.0293270    0.0031871
49
 Energy =    -807.4237470027
 Y    7.7831429    8.0025263    7.8097655  0.00    0.0292632    0.1152024    0.1122355
 N    6.6088769    6.8423658    9.4971942  0.00   -0.0993732   -0.0693388    0.0613540
 N    8.6460938    7.7438198    9.9513497  0.00    0.0207139   -0.0543606    0.1452828
 N    6.6226540   10.0144469    7.7428318  0.00   -0.1443104    0.1417799   -0.0105363
 N    8.6834857    9.9378013    6.7882707  0.00   -0.0014311    0.1101282   -0.0338882
 C    7.5611967    7.0989988   10.3681169  0.00    0.1009032    0.0026260   -0.0232210
 C    7.5932056   10.6247765    7.0849034  0.00    0.0448662   -0.0741127   -0.0633240
 C    9.6927480    8.1383381   10.9043178  0.00   -0.0378837   -0.0406868   -0.0136340
 C    9.1449432    9.1293244   11.9445078  0.00   -0.0003867   -0.0155403   -0.0252540
 C   10.7958117    8.8197062   10.0986272  0.00    0.0095218   -0.0011175   -0.0186922
 C   10.2786300    6.9092105   11.6172432  0.00   -0.0029778    0.0107744   -0.0078966
 H    8.7206574   10.0158229   11.4422840  0.00   -0.0071075    0.0104829   -0.0009202
 H    9.9430144    9.4660150   12.6312690  0.00   -0.0077543   -0.0081440   -0.0163866
 H   10.6650345    6.1859161   10.8790208  0.00    0.0007042   -0.0069525   -0.0048682
 H    9.5237952    6.3936940   12.2374897  0.00   -0.0003494    0.0052701   -0.0076661
 H   11.1089447    7.2007209   12.2852718  0.00   -0.0082608    0.0034158   -0.0086642
 H   11.2116481    8.1235931    9.3482022  0.00    0.0050604    0.0035915   -0.0037749
 H   11.6193704    9.1522530   10.7533144  0.00    0.0029411    0.0031551    0.0030357
 H   10.3957679    9.6996892    9.5648177  0.00    0.0059602    0.0081152   -0.0065635
 C    9.7480244   10.5471193    5.9831600  0.00   -0.0281084   -0.0076199    0.0116152
 C    9.2262358   10.8958239    4.5817844  0.00    0.0054707   -0.0017627    0.0013557
 C   10.8630393    9.5113677    5.8603294  0.00    0.0139643   -0.0220322   -0.0078856
 C   10.3075482   11.8071432    6.6608687  0.00   -0.0033002   -0.0119048   -0.0035525
 H    8.8139498    9.9967365    4.0921138  0.00   -0.0012683   -0.0051609   -0.0025070
 H   10.0354949   11.2983619    3.9466585  0.00    0.0002613   -0.0022298    0.0022040
 H    8.4265307   11.6572464    4.6246161  0.00    0.0017262   -0.0033127    0.0033107
 H   11.1479982   12.2246333    6.0777983  0.00   -0.0072799   -0.0056501    0.0045211
 H   10.6751633   11.5677163    7.6738103  0.00    0.0002168    0.0003270    0.0065511
 H    9.5440218   12.5995751    6.7523601  0.00   -0.0035594    0.0002181    0.0006315
 H   10.4825156    8.5881846    5.3866597  0.00    0.0057352    0.0016720    0.0043839
 H   11.2590328    9.2484136    6.8575163  0.00    0.0019368   -0.0043748   -0.0024913
 H   11.6971282    9.8973338    5.2488742  0.00    0.0047132   -0.0022557   -0.0013377
 C    5.4488300   10.7620361    8.1416420  0.00    0.0306638   -0.0233497   -0.0536369
 C    5.3859351   11.0313950    9.6401706  0.00    0.0227545   -0.0220001   -0.0137011
 H    5.4239758   10.0819557   10.2003424  0.00   -0.0025292   -0.0066180    0.0199760
 H    4.4527305   11.5573076    9.9110952  0.00    0.0047527   -0.0029333   -0.0085255
 H    6.2400118   11.6506994    9.9650992  0.00    0.0063800    0.0022188    0.0038716
 C    5.4415586    6.0949955    9.8993950  0.00    0.0353258    0.0144252   -0.0076060
 C    4.1494348    6.8619024    9.6628840  0.00   -0.0023757    0.0120052   -0.0144048
 H    3.2712610    6.2475487    9.9269398  0.00   -0.0055543   -0.0030587    0.0034144
 H    4.0583972    7.1474298    8.5995304  0.00   -0.0057936   -0.0008810    0.0009891
 H    4.1216331    7.7866857   10.2649476  0.00    0.0001066    0.0004123    0.0022895
 H    4.5476692   10.1986478    7.8376433  0.00   -0.0139822   -0.0078191    0.0062544
 H    5.5136425    5.8098182   10.9715499  0.00    0.0103533    0.0135218   -0.0200604
 H    5.4049304    5.1471326    9.3300730  0.00   -0.0026573   -0.0086790   -0.0085878
 H    8.3484146    8.6723728   12.5583332  0.00   -0.0008163   -0.0019554   -0.0029319
 H    7.4664724   11.6883291    6.7783833  0.00    0.0102950   -0.0203926    0.0361186
 H    7.4504023    6.7740015   11.4298840  0.00   -0.0104096    0.0320344   -0.0548972
 H    5.4045616   11.7302076    7.5934063  0.00    0.0225407   -0.0564649    0.0149721
49
 Energy =    -807.4242075547
 Y    7.7839014    8.0330398    7.8420920  0.00    0.0050438    0.0068836    0.0036995
 N    6.6041001    6.8379927    9.4954889  0.00    0.1266059    0.0382130    0.1126423
 N    8.6483562    7.7362469    9.9526906  0.00    0.1309423    0.0251775    0.1159246
 N    6.6139932   10.0142240    7.7359744  0.00    0.0531388    0.1147803   -0.0782780
 N    8.6815203    9.9404322    6.7851729  0.00    0.1362834    0.0106447   -0.0541297
 C    7.5660303    7.0976003   10.3645096  0.00   -0.1645930   -0.1316102   -0.0163277
 C    7.5970266   10.6199831    7.0795182  0.00   -0.2315070    0.0760718    0.0207192
 C    9.6917217    8.1366683   10.9019803  0.00    0.0006797   -0.0234362    0.0268185
 C    9.1442335    9.1283365   11.9423129  0.00   -0.0046785   -0.0083005   -0.0133478
 C   10.7964501    8.8198563   10.0972215  0.00   -0.0098120   -0.0094787   -0.0060063
 C   10.2780626    6.9096287   11.6159115  0.00    0.0084995   -0.0060748    0.0033209
 H    8.7200998   10.0167673   11.4423579  0.00   -0.0059241    0.0025622   -0.0025717
 H    9.9422963    9.4652469   12.6297669  0.00   -0.0097522   -0.0128899   -0.0252580
 H   10.6650768    6.1852295   10.8786841  0.00   -0.0012714   -0.0035055   -0.0028036
 H    9.5238070    6.3939962   12.2370952  0.00   -0.0008789    0.0071838   -0.0114861
 H   11.1079550    7.2011643   12.2843344  0.00   -0.0068062    0.0058237   -0.0096450
 H   11.2123908    8.1236756    9.3477839  0.00    0.0096693    0.0008450   -0.0123321
 H   11.6192809    9.1522736   10.7532510  0.00   -0.0023491    0.0012839    0.0011097
 H   10.3963049    9.7003837    9.5643021  0.00    0.0077409    0.0087931   -0.0086021
 C    9.7479408   10.5461550    5.9829398  0.00   -0.0097512    0.0096469   -0.0001897
 C    9.2260930   10.8952815    4.5821343  0.00    0.0038899   -0.0001161   -0.0063566
 C   10.8637992    9.5096911    5.8602999  0.00   -0.0026128   -0.0029497   -0.0013045
 C   10.3066866   11.8061736    6.6612651  0.00   -0.0007184   -0.0019062   -0.0014968
 H    8.8141536    9.9963000    4.0917326  0.00   -0.0020192   -0.0036003   -0.0005950
 H   10.0352464   11.2978266    3.9473345  0.00    0.0038186   -0.0014195    0.0003890
 H    8.4265986   11.6572730    4.6247688  0.00    0.0039832   -0.0075867    0.0048207
 H   11.1469615   12.2238064    6.0782809  0.00   -0.0050336   -0.0063473    0.0034608
 H   10.6752759   11.5678613    7.6744395  0.00   -0.0026143   -0.0010604    0.0028293
 H    9.5438136   12.5999281    6.7524206  0.00   -0.0012522   -0.0084862    0.0000923
 H   10.4831592    8.5876291    5.3861140  0.00    0.0029571   -0.0077702    0.0049645
 H   11.2597132    9.2480182    6.8577913  0.00    0.0021583   -0.0085588   -0.0035316
 H   11.6969831    9.8966703    5.2489215  0.00    0.0093003    0.0005137   -0.0033635
 C    5.4500338   10.7583957    8.1396808  0.00   -0.0381338    0.0283869   -0.0085148
 C    5.3877641   11.0298682    9.6396993  0.00   -0.0004788   -0.0104335   -0.0187199
 H    5.4235894   10.0816673   10.2017676  0.00    0.0012145   -0.0110495    0.0207351
 H    4.4533629   11.5569416    9.9102968  0.00    0.0229774   -0.0140967   -0.0170551
 H    6.2404662   11.6508445    9.9654178  0.00    0.0094136   -0.0014643   -0.0002004
 C    5.4420290    6.0952357    9.8984249  0.00   -0.0196954   -0.0170531    0.0065338
 C    4.1494724    6.8628676    9.6621752  0.00   -0.0104848   -0.0119826    0.0043773
 H    3.2714506    6.2475936    9.9268960  0.00   -0.0004351    0.0024389    0.0020878
 H    4.0575389    7.1470976    8.5995478  0.00   -0.0046332    0.0058919   -0.0120927
 H    4.1216032    7.7868695   10.2653152  0.00    0.0013214    0.0026519    0.0004369
 H    4.5465631   10.1982160    7.8379205  0.00   -0.0235069   -0.0089341    0.0064311
 H    5.5148325    5.8111169   10.9699167  0.00    0.0044283    0.0055221   -0.0012357
 H    5.4052630    5.1467441    9.3296664  0.00   -0.0113949   -0.0099450   -0.0056002
 H    8.3484272    8.6722973   12.5583877  0.00    0.0009951   -0.0019212   -0.0100585
 H    7.4677628   11.6874873    6.7819189  0.00    0.0207248   -0.0335596    0.0290715
 H    7.4494452    6.7773796   11.4263918  0.00   -0.0053260    0.0249997   -0.0367629
 H    5.4069285   11.7251570    7.5943523  0.00    0.0093568   -0.0123715   -0.0049294
49
 Energy =    -807.4244534874
 Y    7.7846420    8.0449382    7.8544479  0.00    0.0396969   -0.0147871   -0.0282957
 N    6.6069754    6.8379223    9.4985488  0.00   -0.0438226   -0.0253693    0.0033310
 N    8.6526995    7.7335627    9.9573936  0.00   -0.0157801   -0.0356174    0.0515070
 N    6.6128826   10.0181528    7.7304373  0.00   -0.0559666    0.0465264   -0.0028551
 N    8.6842222    9.9419353    6.7828048  0.00   -0.0509463    0.0422872    0.0209502
 C    7.5631608    7.0925124   10.3634798  0.00    0.0763639   -0.0103116    0.0580676
 C    7.5910455   10.6213548    7.0773672  0.00    0.0368656    0.0151492   -0.0646120
 C    9.6919182    8.1352990   10.9026416  0.00    0.0183515   -0.0059217    0.0363325
 C    9.1437238    9.1276034   11.9409017  0.00    0.0004496    0.0024536    0.0050480
 C   10.7961851    8.8195694   10.0965407  0.00    0.0009873   -0.0066162    0.0062313
 C   10.2780883    6.9094719   11.6154549  0.00    0.0219913   -0.0110076    0.0170846
 H    8.7196543   10.0172294   11.4422959  0.00   -0.0035335   -0.0051761   -0.0060495
 H    9.9416624    9.4644394   12.6281984  0.00   -0.0075328   -0.0095329   -0.0203935
 H   10.6650318    6.1848578   10.8784819  0.00   -0.0014879   -0.0022927   -0.0039477
 H    9.5238045    6.3944100   12.2364764  0.00   -0.0042679    0.0035736   -0.0079617
 H   11.1073497    7.2016031   12.2836285  0.00    0.0009890    0.0032827   -0.0028498
 H   11.2130957    8.1236947    9.3470723  0.00    0.0063400    0.0020511   -0.0099696
 H   11.6191663    9.1523325   10.7532949  0.00   -0.0080774   -0.0013938   -0.0050984
 H   10.3968310    9.7009976    9.5637535  0.00    0.0058017    0.0022214   -0.0054976
 C    9.7480975   10.5465258    5.9823940  0.00    0.0020822    0.0087951   -0.0037347
 C    9.2261025   10.8949999    4.5820795  0.00    0.0104377    0.0039673   -0.0150622
 C   10.8639622    9.5090203    5.8603441  0.00    0.0030623    0.0096379   -0.0099781
 C   10.3062520   11.8056718    6.6614165  0.00    0.0099348    0.0079120   -0.0028013
 H    8.8141607    9.9960220    4.0915716  0.00   -0.0014514   -0.0031239    0.0013215
 H   10.0353622   11.2975921    3.9475837  0.00    0.0037038   -0.0000466   -0.0035049
 H    8.4267905   11.6569738    4.6250144  0.00    0.0021962   -0.0060599    0.0043193
 H   11.1464052   12.2232494    6.0785632  0.00   -0.0012929   -0.0022655    0.0028382
 H   10.6752117   11.5678873    7.6747781  0.00   -0.0050498   -0.0031273   -0.0003755
 H    9.5436990   12.5997157    6.7524495  0.00   -0.0028428   -0.0085556    0.0000166
 H   10.4835032    8.5870446    5.3860746  0.00    0.0009549   -0.0075637    0.0052761
 H   11.2600501    9.2475252    6.8577224  0.00    0.0010283   -0.0081665   -0.0022022
 H   11.6973218    9.8964625    5.2487792  0.00    0.0064121   -0.0027514   -0.0003331
 C    5.4481289   10.7585507    8.1386637  0.00   -0.0117667    0.0085768    0.0039665
 C    5.3886209   11.0288090    9.6386688  0.00    0.0018698   -0.0087697   -0.0014578
 H    5.4234850   10.0811017   10.2031781  0.00    0.0024716   -0.0029117    0.0096418
 H    4.4544673   11.5562581    9.9092890  0.00    0.0219697   -0.0141013   -0.0161960
 H    6.2409893   11.6508326    9.9655513  0.00    0.0031652   -0.0088930   -0.0074566
 C    5.4410077    6.0941619    9.8987164  0.00    0.0162365    0.0155712   -0.0124360
 C    4.1492492    6.8629087    9.6620288  0.00   -0.0043333   -0.0070106    0.0002119
 H    3.2714675    6.2476356    9.9269920  0.00   -0.0021702    0.0023532    0.0021432
 H    4.0570014    7.1472115    8.5990693  0.00   -0.0035739    0.0038671   -0.0064440
 H    4.1216285    7.7870108   10.2654541  0.00    0.0009495   -0.0009309   -0.0015640
 H    4.5454309   10.1977756    7.8383362  0.00   -0.0303646   -0.0126693    0.0010073
 H    5.5154649    5.8119032   10.9690181  0.00   -0.0019500   -0.0051153    0.0181025
 H    5.4049838    5.1463347    9.3293161  0.00   -0.0077689   -0.0095587   -0.0074141
 H    8.3484837    8.6722037   12.5580039  0.00   -0.0015109   -0.0039962   -0.0103662
 H    7.4690271   11.6855455    6.7845565  0.00    0.0012103    0.0428845    0.0033035
 H    7.4488232    6.7797226   11.4232446  0.00   -0.0214576   -0.0083809    0.0273412
 H    5.4082479   11.7225970    7.5945883  0.00   -0.0094054    0.0311242   -0.0211535
49
 Energy =    -807.4245505042
 Y    7.7863754    8.0430954    7.8519115  0.00    0.0272916    0.0054187    0.0025968
 N    6.6065925    6.8374060    9.4999935  0.00    0.0163180   -0.0010934    0.0070813
 N    8.6532206    7.7325689    9.9608725  0.00   -0.0193462   -0.0375747    0.0140485
 N    6.6113642   10.0214658    7.7298017  0.00   -0.0085540    0.0040181   -0.0243031
 N    8.6834848    9.9438298    6.7832874  0.00   -0.0309662    0.0219293    0.0036461
 C    7.5646275    7.0907900   10.3659589  0.00    0.0283766   -0.0034758    0.0101012
 C    7.5901144   10.6229598    7.0749925  0.00    0.0035623    0.0130425   -0.0217108
 C    9.6927449    8.1348468   10.9045864  0.00    0.0155740   -0.0033612    0.0184439
 C    9.1437209    9.1276420   11.9410388  0.00   -0.0052941   -0.0013118   -0.0004285
 C   10.7960919    8.8191865   10.0967898  0.00   -0.0007256   -0.0032083   -0.0013459
 C   10.2791131    6.9089349   11.6162516  0.00    0.0080995   -0.0083778    0.0077025
 H    8.7194613   10.0170099   11.4420143  0.00   -0.0019839   -0.0070323   -0.0067029
 H    9.9412705    9.4639299   12.6271288  0.00    0.0035416   -0.0011649   -0.0054147
 H   10.6649557    6.1847519   10.8783030  0.00    0.0005533   -0.0019437   -0.0023666
 H    9.5236203    6.3946309   12.2360311  0.00   -0.0027618    0.0003084   -0.0030389
 H   11.1073593    7.2017910   12.2834448  0.00    0.0156876    0.0027507    0.0100363
 H   11.2134402    8.1237865    9.3465352  0.00    0.0030724    0.0034039   -0.0037070
 H   11.6188139    9.1522925   10.7531053  0.00   -0.0020634    0.0001767   -0.0024553
 H   10.3971403    9.7011630    9.5634487  0.00    0.0054917   -0.0054388    0.0005715
 C    9.7481012   10.5470649    5.9822215  0.00    0.0031466    0.0079586   -0.0051421
 C    9.2265852   10.8951804    4.5813756  0.00    0.0005466   -0.0015423   -0.0029274
 C   10.8640414    9.5094504    5.8599176  0.00   -0.0015636   -0.0020067    0.0013990
 C   10.3066880   11.8060073    6.6612676  0.00    0.0000431    0.0003355    0.0021496
 H    8.8140687    9.9958691    4.0916378  0.00    0.0009482   -0.0009602    0.0009398
 H   10.0355754   11.2975991    3.9474120  0.00    0.0090255    0.0028236   -0.0091628
 H    8.4269247   11.6566321    4.6252446  0.00    0.0024599   -0.0040860    0.0015673
 H   11.1463402   12.2231197    6.0786997  0.00    0.0070160    0.0031053   -0.0020948
 H   10.6749676   11.5677405    7.6747718  0.00   -0.0039257   -0.0025891   -0.0011116
 H    9.5435733   12.5992498    6.7524507  0.00   -0.0028698   -0.0047687   -0.0001902
 H   10.4835509    8.5866675    5.3863790  0.00    0.0023961   -0.0015848    0.0047106
 H   11.2600866    9.2471057    6.8575755  0.00   -0.0006504   -0.0043446   -0.0073890
 H   11.6977050    9.8963844    5.2487247  0.00    0.0066970   -0.0015134   -0.0021441
 C    5.4471300   10.7593947    8.1387723  0.00   -0.0266519    0.0178320   -0.0151771
 C    5.3886513   11.0283691    9.6384033  0.00    0.0152212   -0.0113527    0.0040944
 H    5.4236164   10.0808641   10.2037671  0.00    0.0022205   -0.0006692    0.0040762
 H    4.4556031   11.5555317    9.9084560  0.00    0.0054658   -0.0047975   -0.0085886
 H    6.2412070   11.6504403    9.9652313  0.00    0.0014726   -0.0100303   -0.0086246
 C    5.4414566    6.0945878    9.8983441  0.00   -0.0014725   -0.0134350    0.0119590
 C    4.1489684    6.8624680    9.6620988  0.00    0.0038014    0.0083679   -0.0096878
 H    3.2713549    6.2477460    9.9271154  0.00   -0.0063185   -0.0026885    0.0034350
 H    4.0568348    7.1474499    8.5986723  0.00   -0.0038040    0.0005701    0.0025761
 H    4.1216838    7.7869880   10.2653797  0.00    0.0003063   -0.0043649   -0.0032838
 H    4.5439667   10.1971672    7.8384491  0.00   -0.0176962   -0.0009455    0.0049703
 H    5.5153900    5.8117106   10.9697944  0.00   -0.0048063   -0.0022234    0.0013813
 H    5.4045242    5.1458475    9.3289605  0.00   -0.0058048   -0.0002050   -0.0018510
 H    8.3484318    8.6720191   12.5574586  0.00   -0.0035104   -0.0044562   -0.0063386
 H    7.4692485   11.6869588    6.7848994  0.00   -0.0004915    0.0574430   -0.0078271
 H    7.4479010    6.7795287   11.4240555  0.00   -0.0209365   -0.0191180    0.0532868
 H    5.4078767   11.7239161    7.5936346  0.00   -0.0168324    0.0223645   -0.0097033
49
 Energy =    -807.4246562903
 Y    7.7899302    8.0452997    7.8534805  0.00    0.0119561    0.0144475    0.0201122
 N    6.6078554    6.8366519    9.5026134  0.00    0.0166091   -0.0006280   -0.0188919
 N    8.6539010    7.7285306    9.9661847  0.00    0.0237255   -0.0070745   -0.0339899
 N    6.6088079   10.0257662    7.7261346  0.00    0.0041597   -0.0402519   -0.0268450
 N    8.6817976    9.9474464    6.7830870  0.00   -0.0027067   -0.0065922   -0.0109375
 C    7.5669328    7.0876633   10.3682902  0.00   -0.0266547   -0.0212710    0.0576875
 C    7.5878691   10.6253739    7.0709780  0.00   -0.0115728    0.0561483   -0.0010644
 C    9.6943926    8.1338000   10.9075359  0.00   -0.0018303   -0.0048872   -0.0149252
 C    9.1432478    9.1274140   11.9407866  0.00    0.0011617   -0.0052705    0.0001323
 C   10.7959645    8.8185534   10.0967139  0.00   -0.0008390   -0.0028689    0.0001713
 C   10.2806272    6.9078797   11.6173994  0.00    0.0064373    0.0016670    0.0057470
 H    8.7190367   10.0164607   11.4412890  0.00   -0.0011007   -0.0085084   -0.0096296
 H    9.9409837    9.4631900   12.6253981  0.00    0.0095509    0.0078766    0.0093066
 H   10.6649208    6.1844144   10.8779171  0.00    0.0031256   -0.0008653    0.0008938
 H    9.5232561    6.3949498   12.2352814  0.00   -0.0009735   -0.0050732    0.0046819
 H   11.1082588    7.2022480   12.2837696  0.00    0.0234243   -0.0043201    0.0183569
 H   11.2141277    8.1241250    9.3456503  0.00   -0.0000836    0.0020886    0.0018147
 H   11.6183179    9.1522826   10.7527661  0.00    0.0039067    0.0013578   -0.0015650
 H   10.3979217    9.7010998    9.5630810  0.00    0.0010561   -0.0099186    0.0050384
 C    9.7481663   10.5480301    5.9817398  0.00    0.0004430   -0.0006558   -0.0020488
 C    9.2270952   10.8951860    4.5805090  0.00    0.0044777   -0.0006559    0.0021897
 C   10.8640785    9.5094877    5.8595945  0.00   -0.0035179   -0.0000321    0.0029616
 C   10.3069991   11.8062205    6.6613036  0.00   -0.0007698   -0.0017011   -0.0034924
 H    8.8140546    9.9955772    4.0917164  0.00    0.0027896   -0.0003330    0.0000069
 H   10.0363800   11.2977191    3.9467183  0.00    0.0054531    0.0016789   -0.0093131
 H    8.4272547   11.6559792    4.6256227  0.00    0.0003728    0.0001680   -0.0023992
 H   11.1465911   12.2230624    6.0787737  0.00    0.0092754    0.0063343   -0.0017285
 H   10.6744677   11.5674363    7.6747891  0.00   -0.0021406   -0.0029456    0.0007854
 H    9.5432267   12.5984676    6.7524479  0.00   -0.0032606    0.0004759    0.0002261
 H   10.4838585    8.5860907    5.3869644  0.00    0.0009721    0.0006737    0.0015629
 H   11.2601738    9.2463092    6.8569495  0.00   -0.0000185   -0.0016737   -0.0046168
 H   11.6985701    9.8961346    5.2485135  0.00   -0.0003316   -0.0036811    0.0012568
 C    5.4443252   10.7611480    8.1375476  0.00   -0.0135572    0.0087234   -0.0154823
 C    5.3898952   11.0269401    9.6382433  0.00   -0.0003374   -0.0002102   -0.0104836
 H    5.4238550   10.0804772   10.2049166  0.00    0.0044018   -0.0072861   -0.0016248
 H    4.4572884   11.5543748    9.9068783  0.00   -0.0019055    0.0004648    0.0017030
 H    6.2416387   11.6494031    9.9643854  0.00    0.0100195   -0.0059187   -0.0070941
 C    5.4417168    6.0940163    9.8987102  0.00   -0.0035516   -0.0092708    0.0087762
 C    4.1488675    6.8626210    9.6614721  0.00    0.0044132   -0.0039942    0.0032245
 H    3.2708479    6.2476969    9.9274752  0.00    0.0022734    0.0028516   -0.0008186
 H    4.0562926    7.1477155    8.5983877  0.00   -0.0026656    0.0006490   -0.0015642
 H    4.1217663    7.7867161   10.2651398  0.00    0.0002827   -0.0012648   -0.0028878
 H    4.5410719   10.1964063    7.8389698  0.00   -0.0079063    0.0117896    0.0053066
 H    5.5151696    5.8115661   10.9704406  0.00   -0.0088098   -0.0050340   -0.0005081
 H    5.4036496    5.1452411    9.3284163  0.00   -0.0019935    0.0055375    0.0038707
 H    8.3481554    8.6715229   12.5564535  0.00   -0.0073057   -0.0056255   -0.0003290
 H    7.4697407   11.6918193    6.7853130  0.00   -0.0032109    0.0441644   -0.0138307
 H    7.4454841    6.7786368   11.4277615  0.00   -0.0136839   -0.0201906    0.0388184