76
Energy = -1268.366011986
Y     7.6977366    7.9615452    8.0053381 
N     6.3778316    7.2176556    9.9032855 
N     8.0477650    8.7374471   10.2351802 
N     6.5043477    9.9831777    7.3163646 
N     8.7127677    9.7612309    6.8597828 
N     8.6225339    4.8730198    6.3525528 
N     6.8741942    6.4254152    6.1729378 
C     7.5018862    5.3399666    5.8184043 
H     7.0881232    4.7211058    4.9978338 
C     7.1429567    7.9157826   10.7214017 
C     7.6271778   10.5158536    6.8755440 
H     7.6645290   11.5670536    6.5334806 
C     5.6923989    6.7502682    5.3720803 
C     4.4685451    6.9559606    6.2570779 
C     5.9550892    7.9663996    4.4868116 
H     4.6186681    7.8054938    6.9462991 
H     4.2607054    6.0557737    6.8599567 
H     3.5769215    7.1741983    5.6431381 
H     6.8299941    7.7949060    3.8369695 
H     6.1541611    8.8559119    5.1096688 
H     5.0812156    8.1780218    3.8448523 
C     9.3155725    3.6965362    5.8697371 
C    10.5969928    4.0895772    5.1361743 
C     9.5917999    2.7365355    7.0234930 
H    10.3715018    4.7582875    4.2880956 
H    11.1242932    3.1999073    4.7494159 
H    11.2812560    4.6269721    5.8167532 
H     8.6525446    2.4446206    7.5227804 
H    10.2420366    3.2156077    7.7775881 
H    10.0987144    1.8239311    6.6654451 
C     8.9293588    9.4650173   11.1135348 
C     8.8642859   10.9605264   10.8110183 
C    10.3629863    8.9457790   10.9976710 
H     9.1644145   11.1460103    9.7638009 
H     9.5332565   11.5367349   11.4753593 
H     7.8356673   11.3381148   10.9385120 
H    10.4077427    7.8700480   11.2422598 
H    10.7346731    9.0801643    9.9647214 
H    11.0436095    9.4854898   11.6806432 
C     9.9922906   10.1859903    6.3339766 
C    10.1056035   11.6689740    5.9875087 
C    10.3666541    9.3151075    5.1330415 
H     9.4374979   11.9496193    5.1529194 
H    11.1384661   11.9005994    5.6744027 
H     9.8653952   12.3116530    6.8528649 
H    10.3075050    8.2475919    5.4071945 
H     9.6657507    9.4932946    4.2966365 
H    11.3923817    9.5306546    4.7815959 
C     5.2831580   10.7433212    7.4825748 
C     5.2792407   12.1393639    6.8629531 
C     4.9050102   10.8106305    8.9629806 
H     5.9935742   12.8148690    7.3675060 
H     4.2755408   12.5872810    6.9634978 
H     5.5282194   12.1133541    5.7874676 
H     4.8902920    9.7996942    9.4038945 
H     5.6471141   11.4086102    9.5216843 
H     3.9093082   11.2699964    9.1014094 
C     5.4220346    6.2868482   10.4573808 
C     3.9879742    6.7826951   10.2708607 
C     5.6147282    4.8996659    9.8481572 
H     3.7557629    6.9010073    9.1982667 
H     3.8498649    7.7643121   10.7555321 
H     3.2577970    6.0766199   10.7064236 
H     6.6406363    4.5358237   10.0317214 
H     5.4631094    4.9366985    8.7540896 
H     4.9017208    4.1697684   10.2724101 
H     7.0337950    7.7956685   11.8255704 
H     5.5994176    6.1972814   11.5515585 
H     5.4734591    5.8916048    4.7033151 
H     4.4785423   10.1728316    6.9738057 
H     8.6018722    9.3137918   12.1656315 
H     8.6430176    3.1937902    5.1499469 
H    10.7463631    9.9840408    7.1220135 
O     9.4237918    6.6890137    8.0651846 
H     9.0888006    5.4855067    7.0871193 
H    10.2296718    6.6919969    8.5939571 
