61
 Energy =    -964.3527597394
 Y    7.6052442    7.8830850    7.8186303  0.00   -0.0036192    0.4585163    0.3482844
 N    6.5909756    7.0871467    9.8354183  0.00    0.0890677    0.0102845   -0.0951000
 N    8.5905528    8.1737618    9.9824768  0.00   -0.0414596   -0.1148534   -0.1558468
 N    6.5968367   10.0276593    7.4883674  0.00    0.0479160   -0.1797259   -0.0682052
 N    8.6117585    9.6115469    6.5039465  0.00   -0.0835370   -0.0929124    0.0332578
 C    7.5872398    7.5480809   10.5715121  0.00   -0.0310541   -0.0320323    0.0213655
 C    7.6037878   10.4337459    6.7351034  0.00    0.0220086    0.0134408   -0.0327025
 H    7.6030979   11.4551867    6.3013909  0.00    0.0065527   -0.0008573    0.0191708
 C    9.6437816    8.8001891   10.7808297  0.00    0.0486829    0.0337115   -0.0115807
 C    9.0695398    9.9672895   11.5976237  0.00   -0.0120194   -0.0018895   -0.0061630
 C   10.6899710    9.3423049    9.8067535  0.00   -0.0079384    0.0031877    0.0049634
 C   10.3194127    7.7927170   11.7230434  0.00   -0.0115660   -0.0107583   -0.0128184
 H    8.5806195   10.6968342   10.9285912  0.00    0.0006333    0.0034519    0.0018105
 H    9.8628709   10.4887152   12.1626947  0.00   -0.0016361   -0.0060761   -0.0045713
 H    8.3152211    9.6147919   12.3234944  0.00    0.0001519    0.0018698    0.0014917
 H   10.7232537    6.9399711   11.1503086  0.00    0.0004360   -0.0054840   -0.0029270
 H    9.6170672    7.3965693   12.4772337  0.00    0.0019756   -0.0017275   -0.0006226
 H   11.1533985    8.2681960   12.2690040  0.00   -0.0052883    0.0032156   -0.0048414
 H   11.1319052    8.5197693    9.2183438  0.00    0.0087228   -0.0069038   -0.0067035
 H   10.2263267   10.0538632    9.1016975  0.00    0.0031075    0.0035914   -0.0022429
 H   11.5040421    9.8595570   10.3444398  0.00   -0.0047766   -0.0053873   -0.0037353
 C    9.6792910    9.9896591    5.5788252  0.00    0.0531060   -0.0012663   -0.0429940
 C    9.1297305   10.0944544    4.1482818  0.00   -0.0129657   -0.0087474    0.0073488
 C   10.7350790    8.8847065    5.6266570  0.00   -0.0056147    0.0092080    0.0164139
 C   10.3366026   11.3187881    5.9800675  0.00   -0.0118790   -0.0024851    0.0131322
 H    8.6568844    9.1420276    3.8507640  0.00    0.0014648   -0.0012214   -0.0037543
 H    9.9329818   10.3262730    3.4260560  0.00   -0.0010566   -0.0024917    0.0075749
 H    8.3667814   10.8899226    4.0708155  0.00   -0.0004098    0.0036611   -0.0030943
 H   10.7183845   11.2630690    7.0143200  0.00    0.0025394    0.0033351    0.0014430
 H    9.6297695   12.1650131    5.9212025  0.00    0.0019708    0.0037619   -0.0022554
 H   11.1836076   11.5521876    5.3109126  0.00   -0.0060263   -0.0046695    0.0022670
 H   11.1598209    8.8007525    6.6420608  0.00    0.0109850   -0.0012066    0.0087122
 H   10.2853851    7.9113906    5.3646749  0.00   -0.0001667   -0.0222897   -0.0183528
 H   11.5596769    9.0928091    4.9222822  0.00   -0.0063176   -0.0096354    0.0035808
 C    5.5307202   10.9557807    7.8637728  0.00   -0.0484855   -0.0020655    0.0357016
 C    6.0850947   12.0617466    8.7741409  0.00    0.0122649   -0.0059603    0.0002035
 C    4.4820967   10.1545758    8.6360349  0.00    0.0075945    0.0036473    0.0010027
 C    4.8640707   11.5852231    6.6312297  0.00    0.0099119   -0.0167610   -0.0081994
 H    6.5679200   11.6183901    9.6626703  0.00   -0.0005031    0.0016064    0.0028362
 H    5.2822132   12.7398681    9.1146950  0.00    0.0018499   -0.0050852   -0.0044575
 H    6.8402527   12.6714682    8.2466419  0.00   -0.0005163    0.0026196    0.0015479
 H    4.4751136   10.7994759    5.9604789  0.00    0.0011668   -0.0033932   -0.0029683
 H    5.5678378   12.2100254    6.0538282  0.00   -0.0017303    0.0007287   -0.0008535
 H    4.0211156   12.2323624    6.9313253  0.00    0.0050478   -0.0033507    0.0045012
 H    4.0507708    9.3654976    7.9958309  0.00   -0.0085179   -0.0080935   -0.0040900
 H    4.9406911    9.6672323    9.5135960  0.00   -0.0040910   -0.0010148    0.0041321
 H    3.6611018   10.8063757    8.9831242  0.00    0.0048005   -0.0049216   -0.0042002
 C    5.5296306    6.2824924   10.4395434  0.00   -0.0521120   -0.0405581    0.0084720
 C    4.8639149    7.0062749   11.6194819  0.00    0.0111425    0.0131211   -0.0061359
 C    6.0902335    4.9323574   10.9105139  0.00    0.0134934    0.0054456   -0.0097783
 C    4.4783779    6.0353443    9.3567665  0.00    0.0039990    0.0194680    0.0065508
 H    5.5680731    7.1736121   12.4529021  0.00   -0.0021155   -0.0007701    0.0041807
 H    4.0218074    6.4119612   12.0163168  0.00    0.0059055    0.0011303   -0.0060305
 H    4.4733077    7.9874860   11.2986425  0.00   -0.0017779    0.0022966    0.0019629
 H    4.9375953    5.5405346    8.4838554  0.00   -0.0015612   -0.0256385   -0.0188780
 H    4.0439876    6.9909990    9.0157361  0.00   -0.0101658    0.0063747   -0.0030898
 H    3.6602096    5.3971932    9.7347646  0.00    0.0066114    0.0003074   -0.0095890
 H    5.2915027    4.2874344   11.3192088  0.00    0.0018518    0.0071989   -0.0041060
 H    6.5691130    4.4034501   10.0679926  0.00   -0.0005233   -0.0046696   -0.0014519
 H    6.8501932    5.0708169   11.7000460  0.00    0.0014719   -0.0009253    0.0035846
 H    7.5811711    7.4108696   11.6729008  0.00   -0.0058907    0.0174709   -0.0065937
61
 Energy =    -964.3538872283
 Y    7.6050901    7.9024978    7.8333774  0.00   -0.0011530    0.3606041    0.2737492
 N    6.5947448    7.0875848    9.8313952  0.00   -0.0545647   -0.0726252    0.0090406
 N    8.5887965    8.1689020    9.9758820  0.00    0.0792449   -0.0301854    0.0073122
 N    6.5988647   10.0200527    7.4854819  0.00   -0.0854835   -0.0018848   -0.0259628
 N    8.6082217    9.6076149    6.5053568  0.00    0.0479550   -0.0067228   -0.0692243
 C    7.5859238    7.5467276   10.5724195  0.00    0.0096343   -0.0192505   -0.0524603
 C    7.6047193   10.4343165    6.7337209  0.00    0.0037700   -0.0602466   -0.0107503
 H    7.6033753   11.4551519    6.3022042  0.00    0.0075880    0.0148814    0.0145674
 C    9.6458414    8.8016188   10.7803422  0.00   -0.0447022   -0.0329631   -0.0497385
 C    9.0690299    9.9672123   11.5973652  0.00   -0.0030567   -0.0065884   -0.0118160
 C   10.6896340    9.3424418    9.8069664  0.00    0.0136803   -0.0013974   -0.0179524
 C   10.3189216    7.7922642   11.7225040  0.00    0.0002660    0.0044443   -0.0130867
 H    8.5806455   10.6969830   10.9286699  0.00   -0.0021415    0.0067879   -0.0001844
 H    9.8628006   10.4884608   12.1625035  0.00   -0.0052322   -0.0068747   -0.0059870
 H    8.3152263    9.6148743   12.3235599  0.00   -0.0016389   -0.0006237    0.0014363
 H   10.7232706    6.9397413   11.1501882  0.00    0.0003062   -0.0068795   -0.0047324
 H    9.6171492    7.3964992   12.4772106  0.00   -0.0019797   -0.0013303   -0.0017173
 H   11.1531731    8.2683348   12.2688022  0.00   -0.0108562   -0.0023276   -0.0079312
 H   11.1322735    8.5194788    9.2180631  0.00    0.0020178    0.0036229    0.0008936
 H   10.2264576   10.0540171    9.1016051  0.00    0.0034793    0.0043922   -0.0021979
 H   11.5038390    9.8593310   10.3442844  0.00   -0.0012153   -0.0015318   -0.0026113
 C    9.6815391    9.9896063    5.5770075  0.00   -0.0319501   -0.0251210    0.0286485
 C    9.1291818   10.0940846    4.1485953  0.00    0.0027213   -0.0008013   -0.0032511
 C   10.7348410    8.8850970    5.6273548  0.00    0.0056149   -0.0234417   -0.0037691
 C   10.3360998   11.3186838    5.9806256  0.00   -0.0025954   -0.0030586    0.0001736
 H    8.6569464    9.1419764    3.8506076  0.00   -0.0015262   -0.0057825   -0.0030512
 H    9.9329374   10.3261677    3.4263791  0.00   -0.0066507   -0.0036277    0.0081802
 H    8.3667643   10.8900783    4.0706864  0.00   -0.0002855    0.0021103   -0.0005502
 H   10.7184919   11.2632113    7.0143833  0.00    0.0024037    0.0018899    0.0050703
 H    9.6298532   12.1651733    5.9211088  0.00   -0.0009102    0.0037030   -0.0018476
 H   11.1833527   11.5519904    5.3110108  0.00   -0.0097404   -0.0036035    0.0074257
 H   11.1602854    8.8007024    6.6424327  0.00    0.0079580   -0.0005450    0.0082613
 H   10.2853776    7.9104476    5.3639011  0.00    0.0067329   -0.0004035   -0.0081980
 H   11.5594092    9.0924014    4.9224368  0.00   -0.0044733   -0.0094810    0.0060545
 C    5.5286673   10.9556956    7.8652857  0.00    0.0448442   -0.0567346   -0.0178405
 C    6.0856137   12.0614968    8.7741508  0.00    0.0031460   -0.0128248   -0.0029785
 C    4.4824177   10.1547329    8.6360789  0.00   -0.0132403   -0.0169762    0.0039040
 C    4.8644904   11.5845155    6.6308838  0.00    0.0009313   -0.0094913    0.0088036
 H    6.5678982   11.6184608    9.6627918  0.00    0.0022379    0.0007939    0.0067050
 H    5.2822914   12.7396556    9.1145072  0.00    0.0056412   -0.0069725   -0.0047919
 H    6.8402308   12.6715813    8.2467086  0.00    0.0014514    0.0018761   -0.0008736
 H    4.4751630   10.7993341    5.9603546  0.00    0.0000738   -0.0077062   -0.0058324
 H    5.5677648   12.2100580    6.0537932  0.00    0.0011925   -0.0011714    0.0003283
 H    4.0213294   12.2322228    6.9315167  0.00    0.0106880   -0.0082709   -0.0000486
 H    4.0504096    9.3651576    7.9956595  0.00   -0.0026229    0.0006578    0.0029267
 H    4.9405171    9.6671923    9.5137727  0.00   -0.0043172   -0.0009809    0.0049975
 H    3.6613045   10.8061703    8.9829476  0.00    0.0016980   -0.0034599   -0.0012146
 C    5.5274229    6.2807786   10.4399050  0.00    0.0319571    0.0213856   -0.0314107
 C    4.8643850    7.0068340   11.6192248  0.00    0.0029849   -0.0001191   -0.0031415
 C    6.0908029    4.9325911   10.9101034  0.00   -0.0015614   -0.0028050   -0.0014169
 C    4.4785458    6.0361714    9.3570466  0.00   -0.0041837   -0.0112363   -0.0226577
 H    5.5679819    7.1735832   12.4530818  0.00    0.0005650   -0.0003398    0.0038922
 H    4.0220556    6.4120129   12.0160642  0.00    0.0095455    0.0064455   -0.0064479
 H    4.4732311    7.9875868   11.2987279  0.00   -0.0021041    0.0062465   -0.0004744
 H    4.9375278    5.5394519    8.4830593  0.00   -0.0095836   -0.0091743    0.0016544
 H    4.0435560    6.9912719    9.0156077  0.00   -0.0082369    0.0079082   -0.0028787
 H    3.6604879    5.3972094    9.7343615  0.00    0.0045769    0.0029049   -0.0096301
 H    5.2915791    4.2877426   11.3190385  0.00    0.0072540    0.0076158   -0.0052458
 H    6.5690890    4.4032552   10.0679348  0.00    0.0019415   -0.0044574   -0.0049905
 H    6.8502535    5.0707810   11.7002013  0.00    0.0015231    0.0011308    0.0017485
 H    7.5809202    7.4116124   11.6726246  0.00   -0.0081205    0.0168013    0.0099579
61
 Energy =    -964.3555861710
 Y    7.6047987    7.9570864    7.8748317  0.00   -0.0008818    0.1288684    0.0989611
 N    6.5948311    7.0820103    9.8271551  0.00   -0.0217545   -0.0338798    0.1117815
 N    8.5932922    8.1603118    9.9682945  0.00    0.0953723    0.0141919    0.1762358
 N    6.5941770   10.0104299    7.4797036  0.00   -0.0799751    0.1707649   -0.0451788
 N    8.6078628    9.6021567    6.5012773  0.00    0.0379846    0.0892118   -0.0703825
 C    7.5850953    7.5434255   10.5691290  0.00    0.0085522   -0.0551104   -0.0405774
 C    7.6061957   10.4299488    6.7310968  0.00   -0.0342750   -0.0455880   -0.0286785
 H    7.6043601   11.4563677    6.3044483  0.00    0.0106446   -0.0337855    0.0370245
 C    9.6446321    8.8006235   10.7755447  0.00   -0.0245149   -0.0441970    0.0023623
 C    9.0681350    9.9665669   11.5960507  0.00   -0.0056517   -0.0233929   -0.0250441
 C   10.6903664    9.3424991    9.8057219  0.00    0.0006328   -0.0067389   -0.0215741
 C   10.3183295    7.7920815   11.7207342  0.00   -0.0078363    0.0022573   -0.0146108
 H    8.5804953   10.6977471   10.9287559  0.00   -0.0071079    0.0114374   -0.0020239
 H    9.8622695   10.4875707   12.1617644  0.00   -0.0067514   -0.0152019   -0.0144836
 H    8.3150919    9.6149313   12.3237668  0.00   -0.0007766   -0.0021023   -0.0050807
 H   10.7233141    6.9388805   11.1496454  0.00   -0.0007900   -0.0048119   -0.0035855
 H    9.6170807    7.3963064   12.4770427  0.00    0.0010155    0.0034289   -0.0136777
 H   11.1519737    8.2683172   12.2678876  0.00   -0.0112045    0.0013461   -0.0121514
 H   11.1328998    8.5194269    9.2177945  0.00    0.0054712    0.0021829   -0.0065913
 H   10.2269123   10.0545836    9.1013089  0.00    0.0077881    0.0088281   -0.0098072
 H   11.5034815    9.8589251   10.3438754  0.00    0.0025509    0.0031257    0.0030543
 C    9.6816413    9.9874243    5.5771657  0.00   -0.0190087   -0.0057143    0.0113748
 C    9.1287275   10.0935587    4.1487152  0.00   -0.0000446   -0.0040620    0.0025091
 C   10.7350168    8.8836080    5.6279106  0.00    0.0091317   -0.0277291    0.0001517
 C   10.3352543   11.3182985    5.9813385  0.00   -0.0079981   -0.0135617    0.0014021
 H    8.6568938    9.1414270    3.8501601  0.00   -0.0033055   -0.0038948   -0.0022503
 H    9.9323205   10.3257318    3.4274754  0.00    0.0022844   -0.0016173    0.0006196
 H    8.3667185   10.8904523    4.0704828  0.00    0.0026286   -0.0037537    0.0030997
 H   10.7188275   11.2635510    7.0148935  0.00   -0.0001625    0.0016036    0.0037857
 H    9.6298802   12.1656880    5.9208393  0.00   -0.0023418   -0.0013597   -0.0002486
 H   11.1822133   11.5514429    5.3117630  0.00   -0.0061977   -0.0046665    0.0046556
 H   11.1615332    8.8005967    6.6435977  0.00   -0.0009401   -0.0059759   -0.0051476
 H   10.2859344    7.9092421    5.3622520  0.00    0.0073065    0.0032825    0.0033493
 H   11.5586975    9.0910959    4.9231451  0.00    0.0066041   -0.0036994   -0.0006558
 C    5.5298934   10.9508094    7.8656669  0.00    0.0239903   -0.0078325   -0.0428981
 C    6.0865242   12.0601099    8.7739141  0.00    0.0050386   -0.0301295   -0.0152878
 C    4.4816987   10.1535029    8.6364661  0.00   -0.0015539   -0.0210631    0.0000222
 C    4.8650906   11.5828393    6.6311981  0.00    0.0082308   -0.0127512    0.0079769
 H    6.5680586   11.6186220    9.6635113  0.00    0.0070231    0.0007111    0.0115197
 H    5.2828637   12.7388093    9.1138710  0.00    0.0075067   -0.0175057   -0.0100519
 H    6.8403253   12.6718857    8.2467200  0.00    0.0009814   -0.0051037   -0.0005286
 H    4.4752298   10.7985125    5.9597107  0.00    0.0013187   -0.0052425   -0.0039213
 H    5.5677741   12.2100042    6.0537794  0.00   -0.0011167   -0.0111875    0.0075217
 H    4.0224965   12.2313570    6.9317526  0.00    0.0106020   -0.0111879    0.0044987
 H    4.0497369    9.3647960    7.9956964  0.00   -0.0055038   -0.0063761    0.0037283
 H    4.9399344    9.6670664    9.5144178  0.00   -0.0082605   -0.0073449    0.0111148
 H    3.6616986   10.8056298    8.9826279  0.00   -0.0028374    0.0035839    0.0017496
 C    5.5273670    6.2804561   10.4377110  0.00    0.0180369    0.0067519   -0.0070345
 C    4.8652186    7.0075279   11.6186447  0.00    0.0078658   -0.0025114   -0.0141088
 C    6.0913758    4.9326525   10.9094794  0.00    0.0004362    0.0007004   -0.0045805
 C    4.4783985    6.0362601    9.3554896  0.00   -0.0102103   -0.0092428   -0.0272435
 H    5.5679124    7.1735268   12.4536388  0.00    0.0021527   -0.0000579   -0.0011716
 H    4.0231661    6.4126296   12.0152110  0.00    0.0061641    0.0038628   -0.0065891
 H    4.4729552    7.9882471   11.2987984  0.00    0.0003031    0.0049823   -0.0002508
 H    4.9366321    5.5373363    8.4822137  0.00   -0.0090750    0.0028699    0.0023081
 H    4.0423211    6.9922853    9.0152100  0.00    0.0004804   -0.0066400   -0.0044856
 H    3.6612167    5.3974821    9.7330532  0.00   -0.0060943   -0.0015373   -0.0024604
 H    5.2922816    4.2887763   11.3183907  0.00   -0.0008290    0.0012208   -0.0016412
 H    6.5692188    4.4026431   10.0674488  0.00    0.0034970   -0.0024934   -0.0030788
 H    6.8504529    5.0708390   11.7005486  0.00   -0.0018337    0.0029352   -0.0055116
 H    7.5799195    7.4139612   11.6731260  0.00   -0.0094855    0.0261542   -0.0402802
61
 Energy =    -964.3561619514
 Y    7.6045713    7.9901498    7.9000075  0.00    0.0074552    0.0245866    0.0167397
 N    6.5962333    7.0791315    9.8300083  0.00   -0.0811161   -0.0520329    0.0344162
 N    8.5986440    8.1558722    9.9724193  0.00    0.0317682   -0.0090428    0.1287956
 N    6.5898812   10.0130811    7.4737517  0.00   -0.0719938    0.1210266   -0.0215819
 N    8.6075201    9.6034805    6.4972453  0.00    0.0337007    0.0419485   -0.0401420
 C    7.5844869    7.5385056   10.5666721  0.00    0.1078718   -0.0057382    0.0790458
 C    7.6051420   10.4267283    6.7278608  0.00   -0.0323319    0.0493476   -0.0614927
 H    7.6053943   11.4546086    6.3076958  0.00    0.0120506   -0.0114588    0.0207266
 C    9.6443822    8.7988155   10.7743151  0.00   -0.0013494   -0.0197577    0.0376863
 C    9.0672454    9.9649956   11.5941068  0.00    0.0060535   -0.0040212   -0.0050632
 C   10.6903184    9.3422136    9.8043325  0.00    0.0079630   -0.0053648   -0.0038089
 C   10.3173879    7.7918589   11.7191111  0.00    0.0234646    0.0006498    0.0088619
 H    8.5800591   10.6986972   10.9287119  0.00   -0.0058252    0.0030363   -0.0040469
 H    9.8617048   10.4863055   12.1606155  0.00   -0.0133466   -0.0208097   -0.0213058
 H    8.3150185    9.6148828   12.3235587  0.00   -0.0017129   -0.0055525   -0.0098245
 H   10.7232851    6.9382529   11.1492340  0.00   -0.0026303   -0.0035147   -0.0051568
 H    9.6171811    7.3964230   12.4761836  0.00   -0.0050073    0.0019293   -0.0136194
 H   11.1508920    8.2684956   12.2668320  0.00   -0.0129633   -0.0017190   -0.0141175
 H   11.1336152    8.5193421    9.2171498  0.00    0.0057836    0.0009118   -0.0107676
 H   10.2275602   10.0553396    9.1006014  0.00    0.0060033    0.0082693   -0.0119199
 H   11.5034093    9.8588663   10.3438596  0.00   -0.0068021   -0.0021351   -0.0028843
 C    9.6821306    9.9865856    5.5765842  0.00   -0.0199933    0.0049002    0.0086358
 C    9.1282350   10.0929465    4.1491131  0.00    0.0158045    0.0013122   -0.0142337
 C   10.7354219    8.8819294    5.6285350  0.00    0.0066180   -0.0087584   -0.0137730
 C   10.3342412   11.3173429    5.9819707  0.00    0.0081425    0.0001802   -0.0092098
 H    8.6567272    9.1410458    3.8498222  0.00   -0.0048740   -0.0052940   -0.0007766
 H    9.9322888   10.3254706    3.4279768  0.00   -0.0019745   -0.0033757    0.0015436
 H    8.3668490   10.8904237    4.0705325  0.00    0.0022762   -0.0052152    0.0058568
 H   10.7189632   11.2638223    7.0152723  0.00   -0.0032827   -0.0015273    0.0030521
 H    9.6298045   12.1658343    5.9207014  0.00   -0.0031617   -0.0081741    0.0009643
 H   11.1814197   11.5509123    5.3122695  0.00   -0.0084135   -0.0053247    0.0078460
 H   11.1620702    8.8001877    6.6438076  0.00   -0.0007148   -0.0099792    0.0002581
 H   10.2864760    7.9085124    5.3615506  0.00    0.0036963   -0.0033636    0.0071548
 H   11.5587423    9.0903110    4.9233688  0.00    0.0066937   -0.0039818    0.0016301
 C    5.5301153   10.9492468    7.8642864  0.00    0.0033614    0.0271017   -0.0299729
 C    6.0873829   12.0578596    8.7729678  0.00   -0.0044159   -0.0069891   -0.0030210
 C    4.4816781   10.1521117    8.6365836  0.00   -0.0054166   -0.0054783   -0.0047599
 C    4.8660008   11.5812302    6.6314934  0.00   -0.0211694    0.0099215   -0.0014546
 H    6.5684908   11.6187539    9.6644341  0.00    0.0056890   -0.0030216    0.0039443
 H    5.2834838   12.7374480    9.1130087  0.00    0.0136550   -0.0258712   -0.0134779
 H    6.8403862   12.6717339    8.2467397  0.00    0.0013980   -0.0110146   -0.0020368
 H    4.4753542   10.7979315    5.9592550  0.00    0.0027895   -0.0064625   -0.0025705
 H    5.5676560   12.2093590    6.0541979  0.00    0.0039660   -0.0124780    0.0068281
 H    4.0235224   12.2304169    6.9322066  0.00    0.0124640   -0.0144200    0.0024372
 H    4.0490082    9.3641063    7.9958057  0.00   -0.0060104   -0.0105249    0.0035948
 H    4.9391951    9.6665827    9.5153406  0.00   -0.0066961   -0.0090261    0.0110654
 H    3.6617564   10.8055868    8.9825399  0.00    0.0058387   -0.0027972   -0.0015294
 C    5.5268515    6.2795765   10.4370857  0.00    0.0215417    0.0110438    0.0016276
 C    4.8661918    7.0079307   11.6175068  0.00   -0.0063631   -0.0086897    0.0019620
 C    6.0919235    4.9328787   10.9087871  0.00   -0.0128407   -0.0122592    0.0032593
 C    4.4778780    6.0363252    9.3537477  0.00   -0.0027714   -0.0158483   -0.0069614
 H    5.5679567    7.1734973   12.4538187  0.00    0.0023679   -0.0008396   -0.0087697
 H    4.0239403    6.4130334   12.0144630  0.00    0.0079868    0.0065859   -0.0081178
 H    4.4728566    7.9887609   11.2988620  0.00    0.0033593    0.0030449   -0.0029355
 H    4.9358515    5.5362914    8.4816080  0.00   -0.0055401    0.0051794   -0.0045744
 H    4.0417754    6.9923089    9.0147718  0.00   -0.0004770   -0.0025033   -0.0097130
 H    3.6612050    5.3974674    9.7323457  0.00   -0.0074865   -0.0001567   -0.0024136
 H    5.2924322    4.2892943   11.3180379  0.00    0.0024259    0.0012232   -0.0033368
 H    6.5694315    4.4022319   10.0671252  0.00    0.0049485   -0.0014435   -0.0044998
 H    6.8504256    5.0710051   11.7004102  0.00   -0.0014574    0.0049345   -0.0074074
 H    7.5789633    7.4165422   11.6706575  0.00   -0.0151648    0.0137821   -0.0180578
61
 Energy =    -964.3563682491
 Y    7.6048641    8.0113068    7.9159880  0.00   -0.0073347   -0.0295164   -0.0200950
 N    6.5933436    7.0751060    9.8319450  0.00    0.1384527    0.0681864    0.0812707
 N    8.6020843    8.1519318    9.9796605  0.00    0.0455904    0.0041288    0.0666945
 N    6.5845996   10.0189275    7.4690522  0.00    0.0266960    0.0598602   -0.0576403
 N    8.6081309    9.6052735    6.4937372  0.00   -0.0492459    0.0503551    0.0045058
 C    7.5901717    7.5356722   10.5707043  0.00   -0.1133944   -0.0908234   -0.0552862
 C    7.6030683   10.4285838    6.7224113  0.00   -0.0230205   -0.0311894   -0.0078056
 H    7.6066217   11.4531451    6.3105448  0.00    0.0128623    0.0760782   -0.0264910
 C    9.6449442    8.7974038   10.7759617  0.00    0.0312855    0.0065463    0.0301345
 C    9.0670630    9.9640796   11.5929179  0.00   -0.0103932   -0.0002657    0.0008140
 C   10.6906314    9.3418245    9.8036184  0.00   -0.0073156   -0.0065856    0.0000215
 C   10.3182139    7.7916514   11.7187956  0.00    0.0116755   -0.0138430    0.0146816
 H    8.5795380   10.6993219   10.9284800  0.00   -0.0003621   -0.0079180   -0.0034891
 H    9.8606579   10.4844679   12.1588134  0.00    0.0012901   -0.0084032   -0.0093948
 H    8.3148878    9.6145658   12.3229074  0.00   -0.0009442   -0.0053534   -0.0110610
 H   10.7231174    6.9377194   11.1487240  0.00   -0.0008621   -0.0014209   -0.0050509
 H    9.6169536    7.3965711   12.4750073  0.00   -0.0026838    0.0005602   -0.0106313
 H   11.1496069    8.2685227   12.2654959  0.00    0.0130842    0.0064030    0.0036663
 H   11.1343745    8.5192622    9.2161450  0.00    0.0044077    0.0017508   -0.0090586
 H   10.2282247   10.0561969    9.0995684  0.00    0.0078700   -0.0015819   -0.0025560
 H   11.5029090    9.8586475   10.3436370  0.00   -0.0021110   -0.0003178   -0.0022250
 C    9.6819392    9.9865524    5.5762058  0.00    0.0068848    0.0038668   -0.0106059
 C    9.1287747   10.0926487    4.1485477  0.00   -0.0008085   -0.0029718   -0.0072521
 C   10.7358946    8.8808689    5.6282188  0.00   -0.0030152    0.0033788   -0.0024397
 C   10.3341309   11.3169216    5.9818753  0.00    0.0008839    0.0024944    0.0033913
 H    8.6563858    9.1405677    3.8495884  0.00   -0.0004078    0.0007527    0.0010162
 H    9.9321524   10.3251351    3.4283718  0.00    0.0099645   -0.0001827   -0.0115352
 H    8.3670308   10.8901527    4.0708609  0.00    0.0049294   -0.0068723    0.0040451
 H   10.7188538   11.2638930    7.0156259  0.00   -0.0056046   -0.0030421   -0.0027082
 H    9.6296109   12.1654606    5.9206734  0.00   -0.0026427   -0.0089249    0.0004749
 H   11.1805157   11.5503163    5.3129684  0.00    0.0059333   -0.0004432   -0.0025839
 H   11.1623879    8.7994097    6.6440177  0.00   -0.0032553   -0.0101507   -0.0055309
 H   10.2869058    7.9077005    5.3614414  0.00    0.0016429   -0.0052706    0.0067929
 H   11.5590755    9.0896289    4.9235998  0.00    0.0111810   -0.0028148   -0.0024920
 C    5.5296561   10.9502726    7.8624472  0.00   -0.0343922    0.0354924   -0.0010014
 C    6.0876471   12.0564354    8.7723956  0.00    0.0073040    0.0022437    0.0005562
 C    4.4814742   10.1512836    8.6363602  0.00    0.0027103    0.0017040   -0.0043953
 C    4.8652655   11.5809271    6.6314058  0.00   -0.0139121    0.0109113   -0.0162295
 H    6.5689985   11.6186579    9.6650888  0.00    0.0006244   -0.0059120   -0.0064323
 H    5.2845700   12.7352850    9.1117920  0.00    0.0001143   -0.0115394   -0.0050004
 H    6.8404832   12.6710547    8.2466516  0.00    0.0017243   -0.0117833   -0.0022530
 H    4.4755850   10.7972756    5.9588809  0.00    0.0018770   -0.0047795    0.0002910
 H    5.5678120   12.2083628    6.0547702  0.00    0.0033505   -0.0088724    0.0034897
 H    4.0247448   12.2291385    6.9326082  0.00   -0.0133759    0.0048165    0.0046298
 H    4.0482258    9.3630837    7.9960061  0.00   -0.0037800   -0.0083330    0.0040376
 H    4.9384318    9.6658366    9.5164390  0.00   -0.0076797   -0.0030813   -0.0011659
 H    3.6621867   10.8053494    8.9823587  0.00    0.0024119   -0.0028020   -0.0007152
 C    5.5271281    6.2792665   10.4370943  0.00   -0.0121845   -0.0146557    0.0101176
 C    4.8663720    7.0077752   11.6170629  0.00   -0.0040323    0.0027550    0.0016948
 C    6.0915780    4.9323353   10.9085571  0.00   -0.0024068   -0.0097661    0.0004930
 C    4.4775492    6.0357093    9.3527288  0.00   -0.0030492   -0.0052996    0.0067222
 H    5.5680814    7.1734324   12.4534284  0.00    0.0029644   -0.0014145   -0.0084555
 H    4.0248015    6.4136072   12.0135957  0.00   -0.0059681   -0.0017233    0.0000503
 H    4.4729891    7.9891877   11.2987456  0.00    0.0064374   -0.0036218   -0.0030588
 H    4.9351814    5.5358257    8.4808200  0.00   -0.0016086    0.0037474   -0.0074065
 H    4.0413858    6.9922505    9.0139755  0.00    0.0031050   -0.0085219   -0.0080421
 H    3.6608325    5.3974584    9.7317913  0.00   -0.0102559   -0.0024870   -0.0019080
 H    5.2926456    4.2896791   11.3176469  0.00   -0.0078172   -0.0107978    0.0030784
 H    6.5697983    4.4019219   10.0667134  0.00    0.0012252    0.0016821   -0.0004245
 H    6.8503392    5.0713601   11.6999611  0.00   -0.0029967    0.0030415   -0.0078478
 H    7.5775873    7.4186728   11.6684285  0.00   -0.0075257   -0.0023099    0.0865952
61
 Energy =    -964.3565170465
 Y    7.6047823    8.0144608    7.9184123  0.00    0.0042883   -0.0100203   -0.0090356
 N    6.5964936    7.0760084    9.8355957  0.00   -0.0025726   -0.0106702   -0.0139611
 N    8.6047039    8.1511080    9.9853016  0.00   -0.0233141   -0.0383176   -0.0045412
 N    6.5835102   10.0239253    7.4657580  0.00    0.0024243   -0.0140770   -0.0232691
 N    8.6069139    9.6079640    6.4927156  0.00   -0.0262155   -0.0022016    0.0048926
 C    7.5890043    7.5318433   10.5709858  0.00    0.0471113    0.0071211    0.0796074
 C    7.6013400   10.4288139    6.7200500  0.00   -0.0060695    0.0602811   -0.0323488
 H    7.6075122   11.4555152    6.3104080  0.00    0.0116103    0.0624809   -0.0273928
 C    9.6462544    8.7971504   10.7780535  0.00    0.0235205    0.0071782    0.0225133
 C    9.0667641    9.9638833   11.5926912  0.00   -0.0036105    0.0000626    0.0038964
 C   10.6905544    9.3414346    9.8034733  0.00   -0.0047402   -0.0027340    0.0029596
 C   10.3192263    7.7911110   11.7194632  0.00    0.0099719   -0.0070171    0.0125731
 H    8.5793366   10.6991827   10.9282424  0.00    0.0009146   -0.0108014   -0.0058029
 H    9.8602819   10.4834788   12.1577816  0.00    0.0077349    0.0026921    0.0012188
 H    8.3147976    9.6142209   12.3222172  0.00   -0.0046790   -0.0065628   -0.0061873
 H   10.7230051    6.9375175   11.1483599  0.00    0.0014450   -0.0018128   -0.0048800
 H    9.6167184    7.3966495   12.4741852  0.00   -0.0032876   -0.0027279   -0.0032846
 H   11.1496325    8.2687325   12.2651527  0.00    0.0262867    0.0059856    0.0154645
 H   11.1347694    8.5193211    9.2154440  0.00    0.0021059    0.0017234   -0.0055973
 H   10.2287245   10.0564326    9.0990888  0.00    0.0058777   -0.0066552    0.0032769
 H   11.5026051    9.8585500   10.3434545  0.00    0.0012803    0.0004788   -0.0031359
 C    9.6818674    9.9867984    5.5758501  0.00    0.0058368    0.0071411   -0.0118078
 C    9.1291208   10.0925166    4.1479199  0.00   -0.0025120   -0.0038110   -0.0011053
 C   10.7359636    8.8807119    5.6278311  0.00   -0.0066463    0.0034807    0.0065594
 C   10.3342995   11.3169700    5.9818183  0.00   -0.0023358   -0.0019026    0.0030367
 H    8.6562234    9.1404235    3.8495727  0.00    0.0012395    0.0013945    0.0003131
 H    9.9324472   10.3250110    3.4280530  0.00    0.0116163    0.0002058   -0.0148727
 H    8.3672762   10.8897703    4.0711680  0.00    0.0037853   -0.0044411    0.0013629
 H   10.7185676   11.2637679    7.0156393  0.00   -0.0047723   -0.0033965   -0.0018436
 H    9.6294251   12.1649245    5.9207033  0.00   -0.0035836   -0.0053858   -0.0000483
 H   11.1804221   11.5501043    5.3131351  0.00    0.0109780    0.0022740   -0.0057146
 H   11.1623168    8.7987293    6.6438736  0.00   -0.0040548   -0.0082205   -0.0079517
 H   10.2870899    7.9072805    5.3617847  0.00    0.0010682   -0.0044014    0.0043135
 H   11.5596460    9.0893355    4.9235833  0.00    0.0082199   -0.0026714   -0.0019991
 C    5.5282833   10.9522866    7.8616454  0.00   -0.0218776    0.0210588    0.0002551
 C    6.0878748   12.0561980    8.7722906  0.00    0.0049847    0.0026340   -0.0010685
 C    4.4814451   10.1511514    8.6360728  0.00    0.0055857    0.0004907   -0.0044230