49
 Energy =    -807.1568776721
 Y    7.5295602    7.4570279    7.9090341  0.00   -0.0283294   -0.0586404    0.3144858
 N    6.2604966    8.2135418    9.9471973  0.00    1.5211599   -0.1343336    0.5395173
 N    8.7260943    8.3708159    9.9044779  0.00   -1.5703281   -0.1688531    0.5347662
 N    8.8316814    6.2832982    6.1134248  0.00   -1.6247788   -0.6600977   -0.4244656
 N    6.3729312    6.1356212    6.1208904  0.00    1.6691585   -0.2156078   -0.6548214
 C    7.6296906    5.6742526    5.3476751  0.00   -0.1647201    1.6339557    2.6420366
 H    7.6668626    4.9857647    4.4405302  0.00   -0.0261532    0.4097290    0.5169184
 C    7.4916329    8.6409709   10.7885600  0.00    0.0990630   -1.4873679   -2.3680996
 C    4.9153675    6.0478121    5.7286232  0.00    0.8152000   -0.3295700   -0.4807375
 C    4.1418704    7.3368144    6.0544508  0.00    0.0789360    0.1141589    0.0858666
 C    4.8376768    5.7974425    4.2110163  0.00   -0.1700217   -0.1784092   -0.1440932
 H    4.6264651    8.2034795    5.4975859  0.00   -0.2629174   -0.3252257    0.2711442
 H    4.1549780    7.5373365    7.1766848  0.00   -0.0426079    0.0322670   -0.7012894
 H    3.0611440    7.2232010    5.7099766  0.00    0.4860751    0.1015503    0.2072130
 H    5.3924403    4.8345009    3.9567985  0.00   -0.3181460    0.4611231    0.0239163
 H    5.3192278    6.6700238    3.6579763  0.00   -0.2273624   -0.4323133    0.2245164
 H    3.7465344    5.7029510    3.8959845  0.00    0.5188984    0.0058588    0.0262549
 C   10.2630932    5.7944997    6.1443370  0.00   -0.7371320   -0.2607458   -0.5280880
 C   10.8612732    5.8309780    7.5661211  0.00   -0.0768468    0.1671355    0.0325776
 C   10.2962643    4.3415777    5.6327688  0.00    0.1972306   -0.1091778   -0.1877555
 H   10.8925628    6.8998134    7.9590576  0.00    0.0112402   -0.5906430   -0.1454197
 H   11.9242008    5.4253772    7.5276861  0.00   -0.4645779    0.2111218    0.0808492
 H   10.2395600    5.1762200    8.2632770  0.00    0.3088475    0.3045604   -0.2802596
 H    9.8772057    4.3008122    4.5729967  0.00    0.2515877   -0.0799709    0.5059835
 H    9.6638436    3.6841763    6.3153025  0.00    0.2924193    0.2751079   -0.3438870
 H   11.3720087    3.9624202    5.6313473  0.00   -0.5188470    0.0716341   -0.0613254
 C   10.1527030    8.1194972   10.3342540  0.00   -0.7678286    0.5232606    0.3479162
 C   10.3149068    8.4979131   11.8188143  0.00    0.1532476   -0.1263095    0.1621117
 C   11.1159021    8.9626924    9.4760242  0.00    0.0309617    0.0630277   -0.0978739
 H   10.0690546    9.6024595   11.9548096  0.00    0.1232873   -0.5218455   -0.0193051
 H   11.3908854    8.3064188   12.1414371  0.00   -0.5031521    0.1128358   -0.0299965
 H    9.6080914    7.8706548   12.4566541  0.00    0.3840558    0.3275676   -0.2398042
 H   11.0107294    8.6697153    8.3790665  0.00    0.1132392    0.2636472    0.4932066
 H   10.8658768   10.0685542    9.5973156  0.00    0.1395849   -0.5279180   -0.0936818
 H   12.1870037    8.7754580    9.8131897  0.00   -0.4288496    0.1019361   -0.2242599
 C    4.9966118    7.6024458   10.5237633  0.00    0.6616903    0.5285311    0.4696452
 C    3.9785747    8.6884541   10.9254121  0.00   -0.1269782    0.0974999    0.1818949
 C    4.3234235    6.5748728    9.5892790  0.00    0.1248912   -0.0429222    0.0022574
 H    3.6078004    9.2652742   10.0186422  0.00    0.1813153   -0.2217084    0.3896711
 H    4.4695566    9.4118221   11.6572999  0.00   -0.3002465   -0.3000473   -0.3639413
 H    3.0879152    8.1894151   11.4323147  0.00    0.3399784    0.3135874   -0.1895198
 H    5.0311755    5.7073271    9.3780756  0.00   -0.3449474    0.3401109    0.0230005
 H    4.0110205    7.0658407    8.6083513  0.00    0.1320718   -0.3223011    0.6188795
 H    3.3952792    6.1654682   10.1075896  0.00    0.4227451    0.1542011   -0.2927239
 H    7.4993978    8.8696463   11.9057871  0.00   -0.0212180   -0.1804181   -0.6323895
 H    5.2903959    7.0642153   11.4850689  0.00   -0.1545491    0.1438568   -0.3737290
 H    4.4331608    5.1719078    6.2762100  0.00    0.2101380    0.3497171   -0.1981635
 H   10.4033206    7.0168402   10.1868069  0.00   -0.1426737    0.4421388    0.1017605
 H   10.8964618    6.4528113    5.4618036  0.00   -0.2436859   -0.2754796    0.2771165
49
 Energy =    -807.2149935324
 Y    7.5292160    7.4563157    7.9128556  0.00   -0.0258037   -0.1147754    0.0465353
 N    6.2789766    8.2119081    9.9537535  0.00    1.5729617    0.1510064    1.0094980
 N    8.7070173    8.3687628    9.9109763  0.00   -1.5732119    0.0720567    1.0832355
 N    8.8119426    6.2752809    6.1082679  0.00   -1.4741599   -0.8167725   -0.6243479
 N    6.3932087    6.1330038    6.1129351  0.00    1.5029424   -0.3837302   -0.8557966
 C    7.6276891    5.6941054    5.3797711  0.00   -0.1341496    1.5270610    2.4967168
 H    7.6665444    4.9907458    4.4468085  0.00   -0.0390742    0.5840738    0.7556632
 C    7.4928366    8.6228990   10.7597933  0.00    0.1398335   -1.8969408   -2.5700285
 C    4.9252707    6.0438106    5.7227828  0.00    0.7260254   -0.2078504   -0.4183714
 C    4.1428291    7.3382033    6.0554952  0.00    0.1871014   -0.0082326   -0.0056987
 C    4.8356109    5.7952789    4.2092655  0.00   -0.0806202   -0.1319701   -0.0895110
 H    4.6232708    8.1995310    5.5008818  0.00   -0.2246749   -0.2530406    0.2512543
 H    4.1544603    7.5377294    7.1681666  0.00   -0.0275387    0.0493848   -0.5830677
 H    3.0670488    7.2244370    5.7124951  0.00    0.4286683    0.0647797    0.1750835
 H    5.3885748    4.8401069    3.9570877  0.00   -0.2726379    0.3622059   -0.0171987
 H    5.3164652    6.6647762    3.6607043  0.00   -0.2071168   -0.3817935    0.1812990
 H    3.7528377    5.7030263    3.8963031  0.00    0.4110691   -0.0051774    0.0093364
 C   10.2541379    5.7913339    6.1379206  0.00   -0.6766883   -0.2286691   -0.4080464
 C   10.8603395    5.8330089    7.5665159  0.00   -0.1620506    0.0776097   -0.0868735
 C   10.2986600    4.3402537    5.6304856  0.00    0.1016476   -0.0543617   -0.1336229
 H   10.8926993    6.8926380    7.9572910  0.00    0.0052414   -0.4741736   -0.1173414
 H   11.9185567    5.4279425    7.5286668  0.00   -0.4020215    0.1909834    0.0409811
 H   10.2433120    5.1799198    8.2598707  0.00    0.2560334    0.2837765   -0.2323249
 H    9.8802617    4.2998440    4.5791413  0.00    0.2196923   -0.0959206    0.3929982
 H    9.6673958    3.6875201    6.3111219  0.00    0.2647456    0.2306072   -0.3052481
 H   11.3657052    3.9632928    5.6305995  0.00   -0.4097886    0.0476008   -0.0619505
 C   10.1433752    8.1258519   10.3384820  0.00   -0.6181531    0.5111365    0.3089268
 C   10.3167689    8.4963750   11.8207854  0.00    0.0601121   -0.0696198    0.0774284
 C   11.1162784    8.9634567    9.4748373  0.00   -0.1033887    0.0290416   -0.0322660
 H   10.0705527    9.5961161   11.9545779  0.00    0.1202094   -0.4475583    0.0095127
 H   11.3847733    8.3077856   12.1410741  0.00   -0.4067694    0.0878589   -0.0168521
 H    9.6127575    7.8746300   12.4537420  0.00    0.3307798    0.2614479   -0.1638429
 H   11.0121051    8.6729179    8.3850600  0.00    0.0927712    0.2400211    0.4102912
 H   10.8675727   10.0621393    9.5961807  0.00    0.1348898   -0.4266648   -0.0960908
 H   12.1817940    8.7766947    9.8104671  0.00   -0.3834257    0.0770257   -0.1786984
 C    5.0046506    7.6088643   10.5294701  0.00    0.4588785    0.4799031    0.3840949
 C    3.9770324    8.6896359   10.9276244  0.00   -0.0025711    0.0707132    0.0985780
 C    4.3249408    6.5743499    9.5893069  0.00    0.2301424    0.0502817    0.0699987
 H    3.6100033    9.2625790   10.0233792  0.00    0.1568638   -0.1882635    0.3399530
 H    4.4659095    9.4081735   11.6528818  0.00   -0.2711930   -0.2139586   -0.2793459
 H    3.0920458    8.1932216   11.4300145  0.00    0.2863719    0.2585371   -0.1549742
 H    5.0269850    5.7114577    9.3783545  0.00   -0.2768458    0.2915041    0.0074890
 H    4.0126250    7.0619248    8.6158707  0.00    0.1141942   -0.2693894    0.5279454
 H    3.4004151    6.1673396   10.1040336  0.00    0.3739979    0.1558156   -0.2264581
 H    7.4991404    8.8674508   11.8981068  0.00   -0.0165735   -0.1673708   -0.8628217
 H    5.2885187    7.0659597   11.4805295  0.00   -0.1090389    0.1200018   -0.2913607
 H    4.4357134    5.1761581    6.2738017  0.00    0.2700914    0.3191889   -0.1808332
 H   10.4015875    7.0222095   10.1880434  0.00   -0.2594485    0.4823783    0.0771191
 H   10.8935011    6.4494671    5.4651698  0.00   -0.2881814   -0.2396042    0.2366542
49
 Energy =    -807.2655955895
 Y    7.5287048    7.4546700    7.9162320  0.00   -0.0256614   -0.1195059    0.0295369
 N    6.3082160    8.2121017    9.9684531  0.00    1.0406725   -0.0299354    0.6732576
 N    8.6773181    8.3678784    9.9263379  0.00   -0.9533128   -0.0401741    0.6769677
 N    8.7826846    6.2613092    6.0983323  0.00   -0.8834608   -0.5372116   -0.2347543
 N    6.4231551    6.1273212    6.0986366  0.00    0.8449757   -0.1347543   -0.4729067
 C    7.6248691    5.7239583    5.4283003  0.00   -0.0612700    0.7555177    1.3929903
 H    7.6659258    5.0001622    4.4588619  0.00   -0.0520365    0.7818352    1.0335738
 C    7.4950995    8.5908677   10.7131153  0.00    0.0806461   -1.4675957   -1.3994149
 C    4.9398193    6.0387522    5.7142969  0.00    0.6730791   -0.0736883   -0.2888142
 C    4.1453567    7.3391901    6.0562421  0.00    0.3106566   -0.1913067   -0.1151381
 C    4.8332542    5.7923570    4.2070657  0.00    0.0317781   -0.0649874   -0.0162810
 H    4.6186689    8.1940804    5.5058172  0.00   -0.1646093   -0.1414337    0.1817340
 H    4.1537994    7.5385042    7.1560501  0.00   -0.0113072    0.0627458   -0.3936630
 H    3.0756830    7.2260063    5.7161044  0.00    0.3503747    0.0334127    0.1360533
 H    5.3829986    4.8478769    3.9571445  0.00   -0.1977671    0.2284360   -0.0689644
 H    5.3123624    6.6570965    3.6645333  0.00   -0.1680866   -0.3078167    0.1140588
 H    3.7616086    5.7030360    3.8966371  0.00    0.2522376   -0.0173742   -0.0118366
 C   10.2407883    5.7867163    6.1290915  0.00   -0.6543138   -0.1768554   -0.2346869
 C   10.8580709    5.8353097    7.5659861  0.00   -0.2622669   -0.0104728   -0.2740824
 C   10.3014705    4.3387185    5.6274541  0.00   -0.0130950    0.0212212   -0.0630534
 H   10.8928542    6.8825936    7.9548126  0.00   -0.0021976   -0.3023445   -0.0693437
 H   11.9103775    5.4317392    7.5298111  0.00   -0.3272979    0.1582539    0.0119575
 H   10.2486417    5.1854752    8.2550329  0.00    0.1879972    0.2173578   -0.1543452
 H    9.8847093    4.2981839    4.5876171  0.00    0.1616236   -0.1162042    0.2405589
 H    9.6726556    3.6922939    6.3049912  0.00    0.2153188    0.1606783   -0.2527697
 H   11.3569458    3.9644186    5.6294318  0.00   -0.2505333    0.0154206   -0.0563475
 C   10.1303012    8.1356203   10.3446842  0.00   -0.5622784    0.3622183    0.1903317
 C   10.3187728    8.4945273   11.8230393  0.00   -0.0458580    0.0076672   -0.0173078
 C   11.1155764    8.9643204    9.4736190  0.00   -0.2676191   -0.0246443    0.0891300
 H   10.0728534    9.5869631   11.9544926  0.00    0.1017425   -0.3420063    0.0476437
 H   11.3761901    8.3096738   12.1406350  0.00   -0.2540649    0.0502978    0.0022312
 H    9.6195045    7.8801812   12.4499401  0.00    0.2432872    0.1831505   -0.0761211
 H   11.0140487    8.6776728    8.3935870  0.00    0.0667517    0.1902077    0.2710987
 H   10.8701654   10.0531324    9.5943912  0.00    0.1150191   -0.2726358   -0.0903854
 H   12.1741262    8.7783801    9.8066683  0.00   -0.3043459    0.0447625   -0.1268982
 C    5.0152106    7.6183826   10.5375264  0.00    0.3930857    0.3937474    0.1373947
 C    3.9758254    8.6912185   10.9302664  0.00    0.1487188    0.0174199    0.0097973
 C    4.3283093    6.5744304    9.5899994  0.00    0.3103306    0.2074447    0.2069227
 H    3.6131953    9.2587082   10.0302698  0.00    0.1211649   -0.1346445    0.2544671
 H    4.4605151    9.4033251   11.6468195  0.00   -0.2179406   -0.0990644   -0.1675956
 H    3.0979566    8.1986160   11.4267672  0.00    0.1960344    0.1828373   -0.0990457
 H    5.0211197    5.7174172    9.3786403  0.00   -0.1797810    0.1879398   -0.0102712
 H    4.0149492    7.0563413    8.6266948  0.00    0.0847196   -0.1927808    0.3880576
 H    3.4079362    6.1702667   10.0991379  0.00    0.3043993    0.1292083   -0.1608909
 H    7.4987845    8.8641626   11.8839528  0.00   -0.0137545   -0.2676164   -1.1821218
 H    5.2860349    7.0684458   11.4742582  0.00   -0.0457959    0.0776169   -0.1450896
 H    4.4402580    5.1824757    6.2702227  0.00    0.3202687    0.2777336   -0.1656635
 H   10.3977731    7.0309470   10.1897306  0.00   -0.3092703    0.5136763    0.0797037
 H   10.8884698    6.4446083    5.4700181  0.00   -0.3266073   -0.1957871    0.1779900
49
 Energy =    -807.3067661445
 Y    7.5276571    7.4510666    7.9224486  0.00   -0.0236632   -0.1203129   -0.0003701
 N    6.3429840    8.2037646    9.9825251  0.00    0.1873735   -0.2739036    0.2075405
 N    8.6457835    8.3606210    9.9384002  0.00   -0.0555980   -0.1765378    0.1554505
 N    8.7506196    6.2459353    6.0965600  0.00   -0.0322827   -0.1877089    0.2317362
 N    6.4534215    6.1275706    6.0875522  0.00   -0.0696603    0.1511979   -0.0059023
 C    7.6225369    5.7485754    5.4755241  0.00    0.0068995    0.0843865    0.3578533
 H    7.6640327    5.0289851    4.4969482  0.00   -0.0511174    0.7395764    1.0093274
 C    7.4969191    8.5455173   10.6730017  0.00    0.0282790   -0.8811474   -0.3256700
 C    4.9672936    6.0347127    5.7029944  0.00    0.5027830    0.0311236   -0.1076744
 C    4.1564513    7.3324891    6.0525671  0.00    0.3516612   -0.2692980   -0.1480103
 C    4.8337527    5.7895231    4.2060253  0.00    0.0997377   -0.0269153    0.0415881
 H    4.6120484    8.1881656    5.5126654  0.00   -0.0719512   -0.0106129    0.0797687
 H    4.1532098    7.5407347    7.1401129  0.00    0.0275202    0.0496000   -0.2090086
 H    3.0897450    7.2277450    5.7216841  0.00    0.2778101   -0.0292950    0.0768371
 H    5.3750768    4.8575074    3.9547982  0.00   -0.0846782    0.0425288   -0.1343753
 H    5.3057680    6.6447891    3.6692189  0.00   -0.0851349   -0.1651758   -0.0002186
 H    3.7721102    5.7024684    3.8963192  0.00    0.1026248   -0.0237677   -0.0046898
 C   10.2143282    5.7796685    6.1191623  0.00   -0.5021166   -0.0644211   -0.0669681
 C   10.8486202    5.8358585    7.5559649  0.00   -0.2923576   -0.0376444   -0.3403637
 C   10.3017950    4.3391546    5.6245732  0.00   -0.0848471    0.0684642   -0.0213088
 H   10.8928185    6.8700861    7.9519939  0.00   -0.0294726   -0.1428802   -0.0515054
 H   11.8970799    5.4380026    7.5307920  0.00   -0.2538612    0.1122574   -0.0515205
 H   10.2563835    5.1937516    8.2487842  0.00    0.0796316    0.1147402   -0.0580781
 H    9.8911038    4.2937904    4.5978224  0.00    0.0743043   -0.1365525    0.0335083
 H    9.6811371    3.6987946    6.2948619  0.00    0.1126873    0.0379691   -0.1497610
 H   11.3464863    3.9652015    5.6272971  0.00   -0.0969152    0.0104556   -0.0410500
 C   10.1059897    8.1486316   10.3517978  0.00   -0.4171387    0.2055460    0.0561637
 C   10.3178552    8.4944099   11.8231692  0.00   -0.1071761    0.0215223   -0.0863323
 C   11.1063033    8.9635419    9.4768982  0.00   -0.3379376   -0.0785833    0.1514190
 H   10.0767124    9.5731375   11.9561298  0.00    0.0549524   -0.1336442    0.0969431
 H   11.3657847    8.3117806   12.1406370  0.00   -0.1159615    0.0132754   -0.0080221
 H    9.6292371    7.8878988   12.4462815  0.00    0.1144528    0.0802547    0.0400513
 H   11.0168143    8.6850953    8.4045171  0.00    0.0161879    0.1249852    0.1238782
 H   10.8745592   10.0419181    9.5909712  0.00    0.0668362   -0.0589135   -0.0680364
 H   12.1620960    8.7803190    9.8013025  0.00   -0.2540116    0.0013299   -0.0546866
 C    5.0338805    7.6338926   10.5423433  0.00    0.3041925    0.2072159    0.0082751
 C    3.9805475    8.6919406   10.9314819  0.00    0.2374562   -0.0275291   -0.0612303
 C    4.3390626    6.5820972    9.5979650  0.00    0.3288775    0.2654159    0.2382214
 H    3.6180719    9.2532909   10.0403898  0.00    0.0781311   -0.0557228    0.1246579
 H    4.4519390    9.3988147   11.6396487  0.00   -0.1275432    0.0520747   -0.0221625
 H    3.1058294    8.2061298   11.4227418  0.00    0.1380745    0.0925460   -0.0562539
 H    5.0136595    5.7247571    9.3783858  0.00   -0.0599563    0.0955189   -0.0121025
 H    4.0183334    7.0484873    8.6423323  0.00    0.0611636   -0.0855353    0.2274954
 H    3.4201191    6.1750283   10.0921709  0.00    0.2390205    0.1198502   -0.0606919
 H    7.4981853    8.8525887   11.8395533  0.00   -0.0077366   -0.3250993   -1.1261593
 H    5.2839316    7.0715521   11.4683134  0.00    0.0218305    0.0644592   -0.0307231
 H    4.4520104    5.1935174    6.2635712  0.00    0.3760070    0.2137751   -0.1431378
 H   10.3875577    7.0504466   10.1933376  0.00   -0.3434041    0.4585146    0.0757687
 H   10.8762716    6.4366784    5.4772133  0.00   -0.3834179   -0.1476401    0.1072305
49
 Energy =    -807.3321177544
 Y    7.5262556    7.4454765    7.9282923  0.00   -0.0238637   -0.1160611   -0.0254432
 N    6.3593619    8.1843997    9.9883466  0.00   -0.2719930   -0.3868558   -0.1495688
 N    8.6351876    8.3468143    9.9402415  0.00    0.3123995   -0.2293305   -0.1776607
 N    8.7384898    6.2355226    6.1096318  0.00    0.2827053    0.0239249    0.4592979
 N    6.4607563    6.1370109    6.0872545  0.00   -0.3453113    0.2825605    0.2302924
 C    7.6215922    5.7626292    5.5092522  0.00   -0.0223769   -0.1336422   -0.0508020
 H    7.6614690    5.0664051    4.5477883  0.00   -0.0392816    0.5510496    0.7879308
 C    7.4982057    8.4993271   10.6478819  0.00    0.0750329   -0.4289667    0.1765722
 C    4.9986907    6.0327518    5.6940695  0.00    0.2318917    0.1227772    0.0139265
 C    4.1732570    7.3210985    6.0468111  0.00    0.3035209   -0.2316374   -0.1472589
 C    4.8366338    5.7865220    4.2065940  0.00    0.1467503   -0.0097087    0.0498799
 H    4.6064203    8.1848569    5.5184437  0.00    0.0133295    0.0765047   -0.0070106
 H    4.1541698    7.5431829    7.1239981  0.00    0.0744927    0.0229690   -0.0582354
 H    3.1073772    7.2273328    5.7271924  0.00    0.2152964   -0.0940179    0.0178761
 H    5.3684026    4.8635701    3.9486534  0.00    0.0106984   -0.1092594   -0.1813186
 H    5.2999197    6.6333185    3.6710215  0.00   -0.0070438   -0.0366740   -0.0992482
 H    3.7816768    5.7014481    3.8964753  0.00   -0.0014099   -0.0260402    0.0230971
 C   10.1838030    5.7745356    6.1111885  0.00   -0.2485997   -0.0115298    0.0924469
 C   10.8345144    5.8361614    7.5404561  0.00   -0.2494921   -0.0568301   -0.2928334
 C   10.2999099    4.3412786    5.6216897  0.00   -0.1288923    0.0720747   -0.0115222
 H   10.8914549    6.8579508    7.9481809  0.00   -0.0642089   -0.0080047   -0.0506005
 H   11.8807008    5.4451575    7.5291810  0.00   -0.1882637    0.0671389   -0.1177357
 H   10.2628666    5.2015086    8.2436374  0.00   -0.0209536    0.0269366    0.0097061
 H    9.8966889    4.2866141    4.6038652  0.00   -0.0000172   -0.1472737   -0.1345602
 H    9.6888426    3.7028347    6.2848143  0.00    0.0135251   -0.0730434   -0.0525196
 H   11.3371882    3.9664734    5.6248846  0.00    0.0119965    0.0280804   -0.0242266
 C   10.0782747    8.1619958   10.3570330  0.00   -0.1802327    0.0633103   -0.0360396
 C   10.3145668    8.4940059   11.8208677  0.00   -0.1462120    0.0569759   -0.0847643
 C   11.0911600    8.9603454    9.4831900  0.00   -0.3201232   -0.0446302    0.1457408
 H   10.0802106    9.5624601   11.9605701  0.00    0.0129807    0.0368754    0.1333957
 H   11.3557918    8.3134201   12.1398730  0.00   -0.0172724   -0.0186161   -0.0367900
 H    9.6378953    7.8947147   12.4459420  0.00   -0.0001814   -0.0099145    0.1322834
 H   11.0185400    8.6932204    8.4146620  0.00   -0.0417220    0.0605661    0.0086089
 H   10.8787743   10.0346450    9.5870378  0.00    0.0199539    0.0901586   -0.0428667
 H   12.1461689    8.7812924    9.7966426  0.00   -0.2112094   -0.0435443    0.0191606
 C    5.0560880    7.6479818   10.5464202  0.00    0.1184194    0.0096299   -0.0827665
 C    3.9901894    8.6914254   10.9305576  0.00    0.2637080   -0.0215134   -0.0627056
 C    4.3549622    6.5941039    9.6092084  0.00    0.2668879    0.2287983    0.2212401
 H    3.6233868    9.2487827   10.0495495  0.00    0.0501160    0.0098396    0.0003906
 H    4.4434116    9.3986315   11.6353560  0.00   -0.0504737    0.1595352    0.0792986
 H    3.1154733    8.2133286   11.4183654  0.00    0.1103211    0.0130787   -0.0299343
 H    5.0077739    5.7321294    9.3781235  0.00    0.0536711    0.0259437   -0.0063397
 H    4.0224215    7.0416340    8.6585755  0.00    0.0527889    0.0229195    0.0920089
 H    3.4353049    6.1819334   10.0865342  0.00    0.1891208    0.1167993    0.0338886
 H    7.4976084    8.8347114   11.7819709  0.00   -0.0005737   -0.3351918   -0.8404665
 H    5.2835682    7.0759559   11.4635842  0.00    0.0852148    0.0397153    0.0877713
 H    4.4714667    5.2067564    6.2549398  0.00    0.3765624    0.1133187   -0.0932439
 H   10.3710221    7.0756415   10.1981436  0.00   -0.3239388    0.3227250    0.0641372
 H   10.8560191    6.4271361    5.4847572  0.00   -0.3872496   -0.0721096    0.0151661
49
 Energy =    -807.3507801580
 Y    7.5244182    7.4379543    7.9325829  0.00   -0.0300491   -0.1012423   -0.0379187
 N    6.3600667    8.1563463    9.9823716  0.00   -0.1243735   -0.3111532   -0.2395620
 N    8.6367779    8.3285012    9.9314930  0.00    0.2146544   -0.2047212   -0.2451113
 N    8.7365524    6.2303120    6.1349973  0.00    0.1657239    0.0921509    0.4684606
 N    6.4589731    6.1535614    6.0955722  0.00   -0.2701751    0.3019659    0.2888018
 C    7.6184221    5.7733604    5.5372890  0.00    0.0152231   -0.0216834    0.0238865
 H    7.6587281    5.1054309    4.6026652  0.00   -0.0291779    0.2870214    0.4487643
 C    7.5032705    8.4573768   10.6332455  0.00   -0.0197974   -0.2515327   -0.0316888
 C    5.0246214    6.0353913    5.6886240  0.00    0.0383954    0.1473028    0.0465770
 C    4.1927658    7.3083768    6.0391860  0.00    0.1973507   -0.0779713   -0.0820544
 C    4.8430589    5.7834927    4.2077432  0.00    0.1481268   -0.0172659    0.0047002
 H    4.6036193    8.1851263    5.5215710  0.00    0.0701051    0.1005487   -0.0607483
 H    4.1580237    7.5449973    7.1108924  0.00    0.1178673   -0.0138005    0.0089927
 H    3.1271148    7.2231543    5.7311837  0.00    0.1566176   -0.1428553   -0.0338918
 H    5.3647328    4.8632946    3.9380269  0.00    0.0618161   -0.1727752   -0.1864945
 H    5.2964085    6.6251843    3.6680721  0.00    0.0451734    0.0391306   -0.1573638
 H    3.7886641    5.6999628    3.8982008  0.00   -0.0210374   -0.0224257    0.0631497
 C   10.1580044    5.7705026    6.1093963  0.00   -0.0540517   -0.0052740    0.1533972
 C   10.8182952    5.8352667    7.5229018  0.00   -0.1572823   -0.0353354   -0.1238386
 C   10.2949319    4.3442181    5.6184388  0.00   -0.1269871    0.0148548   -0.0299016
 H   10.8877615    6.8493089    7.9431677  0.00   -0.0988919    0.0531988   -0.0740688
 H   11.8628393    5.4521232    7.5233146  0.00   -0.1221726    0.0237045   -0.1661077
 H   10.2658896    5.2071572    8.2404647  0.00   -0.0879239   -0.0276402    0.0344001
 H    9.9000784    4.2766042    4.6026848  0.00   -0.0414040   -0.1359547   -0.2038693
 H    9.6936449    3.7021692    6.2769029  0.00   -0.0507588   -0.1394165    0.0049144
 H   11.3308265    3.9691144    5.6225981  0.00    0.0398645    0.0617487   -0.0115415
 C   10.0557908    8.1725481   10.3593083  0.00    0.0059329    0.0191825   -0.0572191
 C   10.3079792    8.4955130   11.8178921  0.00   -0.1393450    0.0534769   -0.0196416
 C   11.0721884    8.9581866    9.4909036  0.00   -0.2118605    0.0145227    0.0578158
 H   10.0826185    9.5576200   11.9683748  0.00   -0.0204829    0.1476269    0.1490037
 H   11.3479105    8.3138566   12.1372818  0.00    0.0037699   -0.0304727   -0.0753649
 H    9.6431243    7.8986978   12.4505839  0.00   -0.0621511   -0.0497040    0.1636405
 H   11.0176303    8.7004760    8.4218688  0.00   -0.0929944    0.0187623   -0.0362144
 H   10.8818441   10.0330270    9.5831861  0.00   -0.0228202    0.1679066   -0.0160023
 H   12.1275143    8.7801100    9.7946148  0.00   -0.1841361   -0.0713770    0.0741953
 C    5.0737132    7.6558396   10.5474906  0.00   -0.0242697   -0.1440812   -0.0384992
 C    4.0043600    8.6912481   10.9292059  0.00    0.1952266    0.0295771   -0.0477393
 C    4.3727456    6.6076358    9.6228058  0.00    0.1471337    0.1046736    0.1001801
 H    3.6288731    9.2463696   10.0549127  0.00    0.0509017    0.0379266   -0.0644609
 H    4.4363070    9.4042037   11.6352052  0.00    0.0086470    0.1987630    0.1192646
 H    3.1267335    8.2184605   11.4139961  0.00    0.1137840   -0.0330365   -0.0209879
 H    5.0062222    5.7382381    9.3780742  0.00    0.1248283    0.0089699    0.0143591
 H    4.0273785    7.0385299    8.6726263  0.00    0.0651284    0.0961699    0.0311660
 H    3.4525496    6.1909974   10.0844247  0.00    0.1340405    0.1030316    0.1129929
 H    7.4972630    8.8114043   11.7220565  0.00    0.0158380   -0.2782711   -0.3995132
 H    5.2865501    7.0803995   11.4637091  0.00    0.1142599    0.0334434    0.1376282
 H    4.4971443    5.2185952    6.2464268  0.00    0.3253495    0.0072578   -0.0254615
 H   10.3498044    7.1013778   10.2036006  0.00   -0.2402223    0.1158960    0.0424837
 H   10.8291789    6.4188112    5.4896150  0.00   -0.3425010    0.0090210   -0.0655634
49
 Energy =    -807.3646735036
 Y    7.5217134    7.4288356    7.9349977  0.00   -0.0307782   -0.0683643   -0.0399527
 N    6.3635030    8.1253002    9.9682166  0.00   -0.1586154   -0.2772442   -0.2790379
 N    8.6398366    8.3072999    9.9154085  0.00    0.0712250   -0.1512156   -0.2534436
 N    8.7345648    6.2299378    6.1706127  0.00    0.0356013    0.0742977    0.3811437
 N    6.4531920    6.1771911    6.1124650  0.00   -0.0298368    0.2390864    0.2155852
 C    7.6173252    5.7867428    5.5667534  0.00   -0.0659536    0.1833650    0.2559033
 H    7.6557528    5.1401870    4.6537746  0.00   -0.0116232    0.0469207    0.1270781
 C    7.5039723    8.4173828   10.6108639  0.00    0.0711195   -0.1088378   -0.1440787
 C    5.0431491    6.0425220    5.6858202  0.00   -0.0263066    0.1062528    0.0254550
 C    4.2123964    7.2998197    6.0321987  0.00    0.0512508    0.0837857   -0.0324328
 C    4.8529437    5.7799981    4.2073657  0.00    0.1344991   -0.0213997   -0.0602811
 H    4.6047678    8.1887809    5.5210873  0.00    0.0977822    0.0823748   -0.0808120
 H    4.1661397    7.5450730    7.1012747  0.00    0.1479136   -0.0387863    0.0371284
 H    3.1474168    7.2139048    5.7322214  0.00    0.1098289   -0.1563930   -0.0642608
 H    5.3646488    4.8564377    3.9231867  0.00    0.0670713   -0.1438870   -0.1493688
 H    5.2960771    6.6211930    3.6593005  0.00    0.0609191    0.0429398   -0.1644719
 H    3.7939388    5.6981221    3.9028019  0.00    0.0188009   -0.0167505    0.0974978
 C   10.1392252    5.7667809    6.1137738  0.00    0.0037091   -0.0145026    0.1197023
 C   10.8022896    5.8342136    7.5092030  0.00   -0.0428366   -0.0250773    0.0551793
 C   10.2870444    4.3453437    5.6140446  0.00   -0.1151009   -0.0543211   -0.0510301
 H   10.8805843    6.8447830    7.9357999  0.00   -0.1232151    0.0773165   -0.0914489
 H   11.8454306    5.4576963    7.5119175  0.00   -0.0644578   -0.0088477   -0.1791692
 H   10.2641336    5.2098440    8.2392411  0.00   -0.1153907   -0.0470797    0.0304475
 H    9.9007560    4.2641982    4.5939896  0.00   -0.0480598   -0.1051467   -0.1692034
 H    9.6946249    3.6957044    6.2716178  0.00   -0.0681247   -0.1535140    0.0097639
 H   11.3269062    3.9743062    5.6206048  0.00    0.0094109    0.0932635   -0.0054666
 C   10.0414530    8.1814323   10.3592671  0.00    0.0302616    0.0009471   -0.0293197
 C   10.2984519    8.4981984   11.8168571  0.00   -0.1145637    0.0780401    0.0575946
 C   11.0527692    8.9585821    9.4965211  0.00   -0.0813762    0.1113575   -0.0305367
 H   10.0831907    9.5607000   11.9800068  0.00   -0.0342874    0.1457898    0.1408021
 H   11.3414090    8.3130708   12.1316144  0.00   -0.0226560   -0.0272958   -0.1028114
 H    9.6442791    7.8997658   12.4601763  0.00   -0.0760292   -0.0446440    0.1386864
 H   11.0126176    8.7062736    8.4260990  0.00   -0.1295058   -0.0036150   -0.0457908
 H   10.8826425   10.0385231    9.5801146  0.00   -0.0492874    0.1510371    0.0016321
 H   12.1064008    8.7762156    9.7965501  0.00   -0.1533132   -0.0782710    0.1009109
 C    5.0844806    7.6541816   10.5490438  0.00   -0.0160719   -0.1238418   -0.0084297
 C    4.0202234    8.6936337   10.9271593  0.00    0.1233643    0.0826523    0.0070593
 C    4.3889847    6.6186640    9.6338321  0.00    0.0233676   -0.0487896   -0.0074438
 H    3.6353302    9.2460458   10.0560501  0.00    0.0674279    0.0410158   -0.0879755
 H    4.4319577    9.4158416   11.6395067  0.00    0.0353571    0.1568659    0.0826747
 H    3.1402207    8.2207859   11.4097233  0.00    0.1279218   -0.0420475   -0.0239733
 H    5.0104527    5.7435728    9.3791132  0.00    0.1527377    0.0164859    0.0322864
 H    4.0340971    7.0406419    8.6844109  0.00    0.0784261    0.1383601    0.0043848
 H    3.4700705    6.2015749   10.0881337  0.00    0.0784348    0.0736813    0.1546221
 H    7.4979324    8.7845855   11.6710628  0.00    0.0142857   -0.2229274   -0.0763153
 H    5.2932648    7.0851666   11.4691004  0.00    0.1250266    0.0217897    0.1529336
 H    4.5276186    5.2261025    6.2402326  0.00    0.2409006   -0.0678257    0.0329996
 H   10.3267619    7.1211336   10.2089951  0.00   -0.1196471   -0.0689318    0.0240643